 vasp.5.4.4.18Apr17-6-g9f103f2a35 (build Sep 05 2018 15:32:50) complex          
  
 executed on             LinuxIFC date 2022.03.16  17:32:38
 running on   16 total cores
 distrk:  each k-point on   16 cores,    1 groups
 distr:  one band on NCORES_PER_BAND=   4 cores,    4 groups


--------------------------------------------------------------------------------------------------------


 INCAR:
 POTCAR:    PAW_PBE Ge_d 03Jul2007                
 POTCAR:    PAW_PBE Ge_d 03Jul2007                
   VRHFIN =Ge: 3d4s4p                                                           
   LEXCH  = PE                                                                  
   EATOM  =  2596.2402 eV,  190.8183 Ry                                         
                                                                                
   TITEL  = PAW_PBE Ge_d 03Jul2007                                              
   LULTRA =        F    use ultrasoft PP ?                                      
   IUNSCR =        1    unscreen: 0-lin 1-nonlin 2-no                           
   RPACOR =    2.000    partial core radius                                     
   POMASS =   72.610; ZVAL   =   14.000    mass and valenz                      
   RCORE  =    2.300    outmost cutoff radius                                   
   RWIGS  =    2.300; RWIGS  =    1.217    wigner-seitz radius (au A)           
   ENMAX  =  310.294; ENMIN  =  232.720 eV                                      
   ICORE  =        3    local potential                                         
   LCOR   =        T    correct aug charges                                     
   LPAW   =        T    paw PP                                                  
   EAUG   =  531.356                                                            
   DEXC   =    0.000                                                            
   RMAX   =    2.342    core radius for proj-oper                               
   RAUG   =    1.300    factor for augmentation sphere                          
   RDEP   =    2.318    radius for radial grids                                 
   RDEPT  =    1.783    core radius for aug-charge                              
                                                                                
   Atomic configuration                                                         
    9 entries                                                                   
     n  l   j            E        occ.                                          
     1  0  0.50    -10959.8463   2.0000                                         
     2  0  0.50     -1371.6056   2.0000                                         
     2  1  1.50     -1198.4791   6.0000                                         
     3  0  0.50      -168.4733   2.0000                                         
     3  1  1.50      -115.6019   6.0000                                         
     3  2  2.50       -29.3106  10.0000                                         
     4  0  0.50       -11.7309   2.0000                                         
     4  1  0.50        -3.8952   2.0000                                         
     4  3  2.50        -4.0817   0.0000                                         
   Description                                                                  
     l       E           TYP  RCUT    TYP  RCUT                                 
     2    -29.3105938     23  2.200                                             
     2    -13.6058260     23  2.200                                             
     0    -11.7309493     23  2.300                                             
     0     -7.4578696     23  2.300                                             
     1     -3.8952261     23  2.300                                             
     1      6.1178114     23  2.300                                             
     3     -1.3605826     23  2.300                                             
  local pseudopotential read in
  partial core-charges read in
  partial kinetic energy density read in
  atomic valenz-charges read in
  non local Contribution for L=           2  read in
    real space projection operators read in
  non local Contribution for L=           2  read in
    real space projection operators read in
  non local Contribution for L=           0  read in
    real space projection operators read in
  non local Contribution for L=           0  read in
    real space projection operators read in
  non local Contribution for L=           1  read in
    real space projection operators read in
  non local Contribution for L=           1  read in
    real space projection operators read in
    PAW grid and wavefunctions read in
 
   number of l-projection  operators is LMAX  =           6
   number of lm-projection operators is LMMAX =          18
 

 ----------------------------------------------------------------------------- 
|                                                                             |
|  ADVICE TO THIS USER RUNNING 'VASP/VAMP'   (HEAR YOUR MASTER'S VOICE ...):  |
|                                                                             |
|      You have a (more or less) 'large supercell' and for larger cells       |
|      it might be more efficient to use real space projection opertators     |
|      So try LREAL= Auto  in the INCAR   file.                               |
|      Mind:          For very  accurate calculation you might also keep the  |
|      reciprocal projection scheme          (i.e. LREAL=.FALSE.)             |
|                                                                             |
 ----------------------------------------------------------------------------- 

  PAW_PBE Ge_d 03Jul2007                :
 energy of atom  1       EATOM=-2596.2402
 kinetic energy error for atom=    0.0033 (will be added to EATOM!!)
 
 
 POSCAR: Ge8                                     
  positions in direct lattice
  No initial velocities read in
 exchange correlation table for  LEXCH =        8
   RHO(1)=    0.500       N(1)  =     2000
   RHO(2)=  100.500       N(2)  =     4000
 


--------------------------------------------------------------------------------------------------------


 ion  position               nearest neighbor table
   1  0.251  0.000  0.250-  41 2.49  59 2.49   9 2.50  27 2.50
   2  0.250  0.000  0.750-  10 2.50  28 2.50  42 2.50  60 2.50
   3  0.250  0.500  0.250-  11 2.50  25 2.50  43 2.50  57 2.50
   4  0.250  0.500  0.750-  12 2.50  26 2.50  44 2.50  58 2.50
   5  0.750  0.000  0.250-  13 2.50  31 2.50  45 2.50  63 2.50
   6  0.750  0.000  0.750-  14 2.50  32 2.50  46 2.50  64 2.50
   7  0.750  0.500  0.250-  15 2.50  29 2.50  47 2.50  61 2.50
   8  0.750  0.500  0.750-  16 2.50  30 2.50  48 2.50  62 2.50
   9  0.125  0.125  0.125-  17 2.50  33 2.50  49 2.50   1 2.50
  10  0.125  0.125  0.625-   2 2.50  18 2.50  34 2.50  50 2.50
  11  0.125  0.625  0.125-   3 2.50  19 2.50  35 2.50  51 2.50
  12  0.125  0.625  0.625-   4 2.50  20 2.50  36 2.50  52 2.50
  13  0.625  0.125  0.125-   5 2.50  21 2.50  37 2.50  53 2.50
  14  0.625  0.125  0.625-   6 2.50  22 2.50  38 2.50  54 2.50
  15  0.625  0.625  0.125-   7 2.50  23 2.50  39 2.50  55 2.50
  16  0.625  0.625  0.625-   8 2.50  24 2.50  40 2.50  56 2.50
  17  0.250  0.250  0.000-   9 2.50  26 2.50  42 2.50  57 2.50
  18  0.250  0.250  0.500-  10 2.50  25 2.50  41 2.50  58 2.50
  19  0.250  0.750  0.000-  11 2.50  28 2.50  44 2.50  59 2.50
  20  0.250  0.750  0.500-  12 2.50  27 2.50  43 2.50  60 2.50
  21  0.750  0.250  0.000-  13 2.50  30 2.50  46 2.50  61 2.50
  22  0.750  0.250  0.500-  14 2.50  29 2.50  45 2.50  62 2.50
  23  0.750  0.750  0.000-  15 2.50  32 2.50  48 2.50  63 2.50
  24  0.750  0.750  0.500-  16 2.50  31 2.50  47 2.50  64 2.50
  25  0.125  0.375  0.375-   3 2.50  18 2.50  36 2.50  49 2.50
  26  0.125  0.375  0.875-   4 2.50  17 2.50  35 2.50  50 2.50
  27  0.125  0.875  0.375-  20 2.50  34 2.50  51 2.50   1 2.50
  28  0.125  0.875  0.875-   2 2.50  19 2.50  33 2.50  52 2.50
  29  0.625  0.375  0.375-   7 2.50  22 2.50  40 2.50  53 2.50
  30  0.625  0.375  0.875-   8 2.50  21 2.50  39 2.50  54 2.50
  31  0.625  0.875  0.375-   5 2.50  24 2.50  38 2.50  55 2.50
  32  0.625  0.875  0.875-   6 2.50  23 2.50  37 2.50  56 2.50
  33  0.000  0.000  0.000-   9 2.50  28 2.50  46 2.50  63 2.50
  34  0.000  0.000  0.500-  10 2.50  27 2.50  45 2.50  64 2.50
  35  0.000  0.500  0.000-  11 2.50  26 2.50  48 2.50  61 2.50
  36  0.000  0.500  0.500-  12 2.50  25 2.50  47 2.50  62 2.50
  37  0.500  0.000  0.000-  13 2.50  32 2.50  42 2.50  59 2.50
  38  0.500  0.000  0.500-  14 2.50  31 2.50  41 2.50  60 2.50
  39  0.500  0.500  0.000-  15 2.50  30 2.50  44 2.50  57 2.50
  40  0.500  0.500  0.500-  16 2.50  29 2.50  43 2.50  58 2.50
  41  0.375  0.125  0.375-   1 2.49  18 2.50  38 2.50  53 2.50
  42  0.375  0.125  0.875-   2 2.50  17 2.50  37 2.50  54 2.50
  43  0.375  0.625  0.375-   3 2.50  20 2.50  40 2.50  55 2.50
  44  0.375  0.625  0.875-   4 2.50  19 2.50  39 2.50  56 2.50
  45  0.875  0.125  0.375-   5 2.50  22 2.50  34 2.50  49 2.50
  46  0.875  0.125  0.875-   6 2.50  21 2.50  33 2.50  50 2.50
  47  0.875  0.625  0.375-   7 2.50  24 2.50  36 2.50  51 2.50
  48  0.875  0.625  0.875-   8 2.50  23 2.50  35 2.50  52 2.50
  49  0.000  0.250  0.250-   9 2.50  25 2.50  45 2.50  61 2.50
  50  0.000  0.250  0.750-  10 2.50  26 2.50  46 2.50  62 2.50
  51  0.000  0.750  0.250-  11 2.50  27 2.50  47 2.50  63 2.50
  52  0.000  0.750  0.750-  12 2.50  28 2.50  48 2.50  64 2.50
  53  0.500  0.250  0.250-  13 2.50  29 2.50  41 2.50  57 2.50
  54  0.500  0.250  0.750-  14 2.50  30 2.50  42 2.50  58 2.50
  55  0.500  0.750  0.250-  15 2.50  31 2.50  43 2.50  59 2.50
  56  0.500  0.750  0.750-  16 2.50  32 2.50  44 2.50  60 2.50
  57  0.375  0.375  0.125-   3 2.50  17 2.50  39 2.50  53 2.50
  58  0.375  0.375  0.625-   4 2.50  18 2.50  40 2.50  54 2.50
  59  0.375  0.875  0.125-   1 2.49  19 2.50  37 2.50  55 2.50
  60  0.375  0.875  0.625-   2 2.50  20 2.50  38 2.50  56 2.50
  61  0.875  0.375  0.125-   7 2.50  21 2.50  35 2.50  49 2.50
  62  0.875  0.375  0.625-   8 2.50  22 2.50  36 2.50  50 2.50
  63  0.875  0.875  0.125-   5 2.50  23 2.50  33 2.50  51 2.50
  64  0.875  0.875  0.625-   6 2.50  24 2.50  34 2.50  52 2.50
 
  LATTYP: Found a simple cubic cell.
 ALAT       =    11.5257244110
  
  Lattice vectors:
  
 A1 = (  11.5257244110,   0.0000000000,   0.0000000000)
 A2 = (   0.0000000000,  11.5257244110,   0.0000000000)
 A3 = (   0.0000000000,   0.0000000000,  11.5257244110)


Analysis of symmetry for initial positions (statically):
=====================================================================
 Subroutine PRICEL returns:
 Original cell was already a primitive cell.
 

 Routine SETGRP: Setting up the symmetry group for a 
 simple cubic supercell.


 Subroutine GETGRP returns: Found  4 space group operations
 (whereof  1 operations were pure point group operations)
 out of a pool of 48 trial point group operations.


The static configuration has the point symmetry C_1 .
 The point group associated with its full space group is C_2v.


Analysis of symmetry for dynamics (positions and initial velocities):
=====================================================================
 Subroutine PRICEL returns:
 Original cell was already a primitive cell.
 

 Routine SETGRP: Setting up the symmetry group for a 
 simple cubic supercell.


 Subroutine GETGRP returns: Found  4 space group operations
 (whereof  1 operations were pure point group operations)
 out of a pool of 48 trial point group operations.


The dynamic configuration has the point symmetry C_1 .
 The point group associated with its full space group is C_2v.


 Subroutine INISYM returns: Found  4 space group operations
 (whereof  1 operations are pure point group operations),
 and found     1 'primitive' translations

 
 
 KPOINTS: grid density                            

Automatic generation of k-mesh.
Space group operators:
 irot       det(A)        alpha          n_x          n_y          n_z        tau_x        tau_y        tau_z
    1     1.000000     0.000001     1.000000     0.000000     0.000000     0.000000     0.000000     0.000000
    2    -1.000000   180.000000     0.000000     0.707107     0.707107     0.000000     0.250000     0.250000
    3     1.000000   180.000000     1.000000     0.000000     0.000000     0.000000     0.000000     0.500000
    4    -1.000000   180.000000     0.000000    -0.707107     0.707107     0.000000     0.750000     0.250000
 
 Subroutine IBZKPT returns following result:
 ===========================================
 
 Found     12 irreducible k-points:
 
 Following reciprocal coordinates:
            Coordinates               Weight
  0.125000  0.125000  0.125000      4.000000
  0.375000  0.125000  0.125000      4.000000
  0.125000  0.375000  0.125000      8.000000
  0.375000  0.375000  0.125000      8.000000
  0.125000 -0.375000  0.125000      8.000000
  0.375000 -0.375000  0.125000      8.000000
  0.125000 -0.125000  0.125000      4.000000
  0.375000 -0.125000  0.125000      4.000000
  0.125000  0.375000  0.375000      4.000000
  0.375000  0.375000  0.375000      4.000000
  0.125000 -0.375000  0.375000      4.000000
  0.375000 -0.375000  0.375000      4.000000
 
 Following cartesian coordinates:
            Coordinates               Weight
  0.010845  0.010845  0.010845      4.000000
  0.032536  0.010845  0.010845      4.000000
  0.010845  0.032536  0.010845      8.000000
  0.032536  0.032536  0.010845      8.000000
  0.010845 -0.032536  0.010845      8.000000
  0.032536 -0.032536  0.010845      8.000000
  0.010845 -0.010845  0.010845      4.000000
  0.032536 -0.010845  0.010845      4.000000
  0.010845  0.032536  0.032536      4.000000
  0.032536  0.032536  0.032536      4.000000
  0.010845 -0.032536  0.032536      4.000000
  0.032536 -0.032536  0.032536      4.000000
 


--------------------------------------------------------------------------------------------------------




 Dimension of arrays:
   k-points           NKPTS =     12   k-points in BZ     NKDIM =     12   number of bands    NBANDS=    540
   number of dos      NEDOS =    301   number of ions     NIONS =     64
   non local maximal  LDIM  =      6   non local SUM 2l+1 LMDIM =     18
   total plane-waves  NPLWV = 592704
   max r-space proj   IRMAX =      1   max aug-charges    IRDMAX=  13217
   dimension x,y,z NGX =    84 NGY =   84 NGZ =   84
   dimension x,y,z NGXF=   168 NGYF=  168 NGZF=  168
   support grid    NGXF=   168 NGYF=  168 NGZF=  168
   ions per type =              64
   NGX,Y,Z   is equivalent  to a cutoff of  12.12, 12.12, 12.12 a.u.
   NGXF,Y,Z  is equivalent  to a cutoff of  24.23, 24.23, 24.23 a.u.

 SYSTEM =  unknown system                          
 POSCAR =  Ge8                                     

 Startparameter for this run:
   NWRITE =      2    write-flag & timer
   PREC   = accura    normal or accurate (medium, high low for compatibility)
   ISTART =      0    job   : 0-new  1-cont  2-samecut
   ICHARG =      2    charge: 1-file 2-atom 10-const
   ISPIN  =      1    spin polarized calculation?
   LNONCOLLINEAR =      F non collinear calculations
   LSORBIT =      F    spin-orbit coupling
   INIWAV =      1    electr: 0-lowe 1-rand  2-diag
   LASPH  =      F    aspherical Exc in radial PAW
   METAGGA=      F    non-selfconsistent MetaGGA calc.

 Electronic Relaxation 1
   ENCUT  =  500.0 eV  36.75 Ry    6.06 a.u.  21.01 21.01 21.01*2*pi/ulx,y,z
   ENINI  =  500.0     initial cutoff
   ENAUG  =  531.4 eV  augmentation charge cutoff
   NELM   =     60;   NELMIN=  2; NELMDL= -5     # of ELM steps 
   EDIFF  = 0.1E-07   stopping-criterion for ELM
   LREAL  =      F    real-space projection
   NLSPLINE    = F    spline interpolate recip. space projectors
   LCOMPAT=      F    compatible to vasp.4.4
   GGA_COMPAT  = T    GGA compatible to vasp.4.4-vasp.4.6
   LMAXPAW     = -100 max onsite density
   LMAXMIX     =    2 max onsite mixed and CHGCAR
   VOSKOWN=      0    Vosko Wilk Nusair interpolation
   ROPT   =    0.00000
 Ionic relaxation
   EDIFFG = 0.1E-06   stopping-criterion for IOM
   NSW    =      0    number of steps for IOM
   NBLOCK =      1;   KBLOCK =      1    inner block; outer block 
   IBRION =     -1    ionic relax: 0-MD 1-quasi-New 2-CG
   NFREE  =      0    steps in history (QN), initial steepest desc. (CG)
   ISIF   =      2    stress and relaxation
   IWAVPR =     10    prediction:  0-non 1-charg 2-wave 3-comb
   ISYM   =      2    0-nonsym 1-usesym 2-fastsym
   LCORR  =      T    Harris-Foulkes like correction to forces

   POTIM  = 0.5000    time-step for ionic-motion
   TEIN   =    0.0    initial temperature
   TEBEG  =    0.0;   TEEND  =   0.0 temperature during run
   SMASS  =  -3.00    Nose mass-parameter (am)
   estimated Nose-frequenzy (Omega)   =  0.10E-29 period in steps =****** mass=  -0.304E-26a.u.
   SCALEE = 1.0000    scale energy and forces
   NPACO  =    256;   APACO  = 16.0  distance and # of slots for P.C.
   PSTRESS=    0.0 pullay stress

  Mass of Ions in am
   POMASS =  72.61
  Ionic Valenz
   ZVAL   =  14.00
  Atomic Wigner-Seitz radii
   RWIGS  =  -1.00
  virtual crystal weights 
   VCA    =   1.00
   NELECT =     896.0000    total number of electrons
   NUPDOWN=      -1.0000    fix difference up-down

 DOS related values:
   EMIN   =  10.00;   EMAX   =-10.00  energy-range for DOS
   EFERMI =   0.00
   ISMEAR =     0;   SIGMA  =   0.03  broadening in eV -4-tet -1-fermi 0-gaus

 Electronic relaxation 2 (details)
   IALGO  =     38    algorithm
   LDIAG  =      T    sub-space diagonalisation (order eigenvalues)
   LSUBROT=      F    optimize rotation matrix (better conditioning)
   TURBO    =      0    0=normal 1=particle mesh
   IRESTART =      0    0=no restart 2=restart with 2 vectors
   NREBOOT  =      0    no. of reboots
   NMIN     =      0    reboot dimension
   EREF     =   0.00    reference energy to select bands
   IMIX   =      4    mixing-type and parameters
     AMIX     =   0.40;   BMIX     =  1.00
     AMIX_MAG =   1.60;   BMIX_MAG =  1.00
     AMIN     =   0.10
     WC   =   100.;   INIMIX=   1;  MIXPRE=   1;  MAXMIX= -45

 Intra band minimization:
   WEIMIN = 0.0000     energy-eigenvalue tresh-hold
   EBREAK =  0.46E-11  absolut break condition
   DEPER  =   0.30     relativ break condition  

   TIME   =   0.40     timestep for ELM

  volume/ion in A,a.u.               =      23.92       161.44
  Fermi-wavevector in a.u.,A,eV,Ry     =   1.369334  2.587665 25.511938  1.875075
  Thomas-Fermi vector in A             =   2.495218
 
 Write flags
   LWAVE        =      F    write WAVECAR
   LDOWNSAMPLE  =      F    k-point downsampling of WAVECAR
   LCHARG       =      F    write CHGCAR
   LVTOT        =      F    write LOCPOT, total local potential
   LVHAR        =      F    write LOCPOT, Hartree potential only
   LELF         =      F    write electronic localiz. function (ELF)
   LORBIT       =      0    0 simple, 1 ext, 2 COOP (PROOUT), +10 PAW based schemes


 Dipole corrections
   LMONO  =      F    monopole corrections only (constant potential shift)
   LDIPOL =      F    correct potential (dipole corrections)
   IDIPOL =      0    1-x, 2-y, 3-z, 4-all directions 
   EPSILON=  1.0000000 bulk dielectric constant

 Exchange correlation treatment:
   GGA     =    --    GGA type
   LEXCH   =     8    internal setting for exchange type
   VOSKOWN=      0    Vosko Wilk Nusair interpolation
   LHFCALC =     F    Hartree Fock is set to
   LHFONE  =     F    Hartree Fock one center treatment
   AEXX    =    0.0000 exact exchange contribution

 Linear response parameters
   LEPSILON=     F    determine dielectric tensor
   LRPA    =     F    only Hartree local field effects (RPA)
   LNABLA  =     F    use nabla operator in PAW spheres
   LVEL    =     F    velocity operator in full k-point grid
   LINTERFAST=   F  fast interpolation
   KINTER  =     0    interpolate to denser k-point grid
   CSHIFT  =0.1000    complex shift for real part using Kramers Kronig
   OMEGAMAX=  -1.0    maximum frequency
   DEG_THRESHOLD= 0.2000000E-02 threshold for treating states as degnerate
   RTIME   =   -0.100 relaxation time in fs
  (WPLASMAI=    0.000 imaginary part of plasma frequency in eV, 0.658/RTIME)
   DFIELD  = 0.0000000 0.0000000 0.0000000 field for delta impulse in time
 
 Orbital magnetization related:
   ORBITALMAG=     F  switch on orbital magnetization
   LCHIMAG   =     F  perturbation theory with respect to B field
   DQ        =  0.001000  dq finite difference perturbation B field
   LLRAUG    =     F  two centre corrections for induced B field



--------------------------------------------------------------------------------------------------------


 Static calculation
 charge density and potential will be updated during run
 non-spin polarized calculation
 Variant of blocked Davidson
 Davidson routine will perform the subspace rotation
 perform sub-space diagonalisation
    after iterative eigenvector-optimisation
 modified Broyden-mixing scheme, WC =      100.0
 initial mixing is a Kerker type mixing with AMIX =  0.4000 and BMIX =      1.0000
 Hartree-type preconditioning will be used
 using additional bands           92
 reciprocal scheme for non local part
 use partial core corrections
 calculate Harris-corrections to forces 
   (improved forces if not selfconsistent)
 use gradient corrections 
 use of overlap-Matrix (Vanderbilt PP)
 Gauss-broadening in eV      SIGMA  =   0.03


--------------------------------------------------------------------------------------------------------


  energy-cutoff  :      500.00
  volume of cell :     1531.10
      direct lattice vectors                 reciprocal lattice vectors
    11.525724411  0.000000000  0.000000000     0.086762442  0.000000000  0.000000000
     0.000000000 11.525724411  0.000000000     0.000000000  0.086762442  0.000000000
     0.000000000  0.000000000 11.525724411     0.000000000  0.000000000  0.086762442

  length of vectors
    11.525724411 11.525724411 11.525724411     0.086762442  0.086762442  0.086762442


 
 k-points in units of 2pi/SCALE and weight: grid density                            
   0.01084531  0.01084531  0.01084531       0.062
   0.03253592  0.01084531  0.01084531       0.062
   0.01084531  0.03253592  0.01084531       0.125
   0.03253592  0.03253592  0.01084531       0.125
   0.01084531 -0.03253592  0.01084531       0.125
   0.03253592 -0.03253592  0.01084531       0.125
   0.01084531 -0.01084531  0.01084531       0.062
   0.03253592 -0.01084531  0.01084531       0.062
   0.01084531  0.03253592  0.03253592       0.062
   0.03253592  0.03253592  0.03253592       0.062
   0.01084531 -0.03253592  0.03253592       0.062
   0.03253592 -0.03253592  0.03253592       0.062
 
 k-points in reciprocal lattice and weights: grid density                            
   0.12500000  0.12500000  0.12500000       0.062
   0.37500000  0.12500000  0.12500000       0.062
   0.12500000  0.37500000  0.12500000       0.125
   0.37500000  0.37500000  0.12500000       0.125
   0.12500000 -0.37500000  0.12500000       0.125
   0.37500000 -0.37500000  0.12500000       0.125
   0.12500000 -0.12500000  0.12500000       0.062
   0.37500000 -0.12500000  0.12500000       0.062
   0.12500000  0.37500000  0.37500000       0.062
   0.37500000  0.37500000  0.37500000       0.062
   0.12500000 -0.37500000  0.37500000       0.062
   0.37500000 -0.37500000  0.37500000       0.062
 
 position of ions in fractional coordinates (direct lattice) 
   0.25100000  0.00000000  0.25000000
   0.25000000  0.00000000  0.75000000
   0.25000000  0.50000000  0.25000000
   0.25000000  0.50000000  0.75000000
   0.75000000  0.00000000  0.25000000
   0.75000000  0.00000000  0.75000000
   0.75000000  0.50000000  0.25000000
   0.75000000  0.50000000  0.75000000
   0.12500000  0.12500000  0.12500000
   0.12500000  0.12500000  0.62500000
   0.12500000  0.62500000  0.12500000
   0.12500000  0.62500000  0.62500000
   0.62500000  0.12500000  0.12500000
   0.62500000  0.12500000  0.62500000
   0.62500000  0.62500000  0.12500000
   0.62500000  0.62500000  0.62500000
   0.25000000  0.25000000  0.00000000
   0.25000000  0.25000000  0.50000000
   0.25000000  0.75000000  0.00000000
   0.25000000  0.75000000  0.50000000
   0.75000000  0.25000000  0.00000000
   0.75000000  0.25000000  0.50000000
   0.75000000  0.75000000  0.00000000
   0.75000000  0.75000000  0.50000000
   0.12500000  0.37500000  0.37500000
   0.12500000  0.37500000  0.87500000
   0.12500000  0.87500000  0.37500000
   0.12500000  0.87500000  0.87500000
   0.62500000  0.37500000  0.37500000
   0.62500000  0.37500000  0.87500000
   0.62500000  0.87500000  0.37500000
   0.62500000  0.87500000  0.87500000
   0.00000000  0.00000000  0.00000000
   0.00000000  0.00000000  0.50000000
   0.00000000  0.50000000  0.00000000
   0.00000000  0.50000000  0.50000000
   0.50000000  0.00000000  0.00000000
   0.50000000  0.00000000  0.50000000
   0.50000000  0.50000000  0.00000000
   0.50000000  0.50000000  0.50000000
   0.37500000  0.12500000  0.37500000
   0.37500000  0.12500000  0.87500000
   0.37500000  0.62500000  0.37500000
   0.37500000  0.62500000  0.87500000
   0.87500000  0.12500000  0.37500000
   0.87500000  0.12500000  0.87500000
   0.87500000  0.62500000  0.37500000
   0.87500000  0.62500000  0.87500000
   0.00000000  0.25000000  0.25000000
   0.00000000  0.25000000  0.75000000
   0.00000000  0.75000000  0.25000000
   0.00000000  0.75000000  0.75000000
   0.50000000  0.25000000  0.25000000
   0.50000000  0.25000000  0.75000000
   0.50000000  0.75000000  0.25000000
   0.50000000  0.75000000  0.75000000
   0.37500000  0.37500000  0.12500000
   0.37500000  0.37500000  0.62500000
   0.37500000  0.87500000  0.12500000
   0.37500000  0.87500000  0.62500000
   0.87500000  0.37500000  0.12500000
   0.87500000  0.37500000  0.62500000
   0.87500000  0.87500000  0.12500000
   0.87500000  0.87500000  0.62500000
 
 position of ions in cartesian coordinates  (Angst):
   2.89295683  0.00000000  2.88143110
   2.88143110  0.00000000  8.64429331
   2.88143110  5.76286221  2.88143110
   2.88143110  5.76286221  8.64429331
   8.64429331  0.00000000  2.88143110
   8.64429331  0.00000000  8.64429331
   8.64429331  5.76286221  2.88143110
   8.64429331  5.76286221  8.64429331
   1.44071555  1.44071555  1.44071555
   1.44071555  1.44071555  7.20357776
   1.44071555  7.20357776  1.44071555
   1.44071555  7.20357776  7.20357776
   7.20357776  1.44071555  1.44071555
   7.20357776  1.44071555  7.20357776
   7.20357776  7.20357776  1.44071555
   7.20357776  7.20357776  7.20357776
   2.88143110  2.88143110  0.00000000
   2.88143110  2.88143110  5.76286221
   2.88143110  8.64429331  0.00000000
   2.88143110  8.64429331  5.76286221
   8.64429331  2.88143110  0.00000000
   8.64429331  2.88143110  5.76286221
   8.64429331  8.64429331  0.00000000
   8.64429331  8.64429331  5.76286221
   1.44071555  4.32214665  4.32214665
   1.44071555  4.32214665 10.08500886
   1.44071555 10.08500886  4.32214665
   1.44071555 10.08500886 10.08500886
   7.20357776  4.32214665  4.32214665
   7.20357776  4.32214665 10.08500886
   7.20357776 10.08500886  4.32214665
   7.20357776 10.08500886 10.08500886
   0.00000000  0.00000000  0.00000000
   0.00000000  0.00000000  5.76286221
   0.00000000  5.76286221  0.00000000
   0.00000000  5.76286221  5.76286221
   5.76286221  0.00000000  0.00000000
   5.76286221  0.00000000  5.76286221
   5.76286221  5.76286221  0.00000000
   5.76286221  5.76286221  5.76286221
   4.32214665  1.44071555  4.32214665
   4.32214665  1.44071555 10.08500886
   4.32214665  7.20357776  4.32214665
   4.32214665  7.20357776 10.08500886
  10.08500886  1.44071555  4.32214665
  10.08500886  1.44071555 10.08500886
  10.08500886  7.20357776  4.32214665
  10.08500886  7.20357776 10.08500886
   0.00000000  2.88143110  2.88143110
   0.00000000  2.88143110  8.64429331
   0.00000000  8.64429331  2.88143110
   0.00000000  8.64429331  8.64429331
   5.76286221  2.88143110  2.88143110
   5.76286221  2.88143110  8.64429331
   5.76286221  8.64429331  2.88143110
   5.76286221  8.64429331  8.64429331
   4.32214665  4.32214665  1.44071555
   4.32214665  4.32214665  7.20357776
   4.32214665 10.08500886  1.44071555
   4.32214665 10.08500886  7.20357776
  10.08500886  4.32214665  1.44071555
  10.08500886  4.32214665  7.20357776
  10.08500886 10.08500886  1.44071555
  10.08500886 10.08500886  7.20357776
 


--------------------------------------------------------------------------------------------------------


 k-point  1 :   0.1250 0.1250 0.1250  plane waves:   38875
 k-point  2 :   0.3750 0.1250 0.1250  plane waves:   38859
 k-point  3 :   0.1250 0.3750 0.1250  plane waves:   38859
 k-point  4 :   0.3750 0.3750 0.1250  plane waves:   38907
 k-point  5 :   0.1250-0.3750 0.1250  plane waves:   38859
 k-point  6 :   0.3750-0.3750 0.1250  plane waves:   38907
 k-point  7 :   0.1250-0.1250 0.1250  plane waves:   38875
 k-point  8 :   0.3750-0.1250 0.1250  plane waves:   38859
 k-point  9 :   0.1250 0.3750 0.3750  plane waves:   38907
 k-point 10 :   0.3750 0.3750 0.3750  plane waves:   38892
 k-point 11 :   0.1250-0.3750 0.3750  plane waves:   38907
 k-point 12 :   0.3750-0.3750 0.3750  plane waves:   38892

 maximum and minimum number of plane-waves per node :      9798     9667

 maximum number of plane-waves:     38907
 maximum index in each direction: 
   IXMAX=   20   IYMAX=   21   IZMAX=   20
   IXMIN=  -21   IYMIN=  -21   IZMIN=  -21


 parallel 3D FFT for wavefunctions:
    minimum data exchange during FFTs selected (reduces bandwidth)
 parallel 3D FFT for charge:
    minimum data exchange during FFTs selected (reduces bandwidth)


 total amount of memory used by VASP MPI-rank0   353489. kBytes
=======================================================================

   base      :      30000. kBytes
   nonl-proj :      26870. kBytes
   fftplans  :      14849. kBytes
   grid      :      20975. kBytes
   one-center:        248. kBytes
   wavefun   :     260547. kBytes
 
     INWAV:  cpu time    0.0000: real time    0.0000
 Broyden mixing: mesh for mixing (old mesh)
   NGX = 43   NGY = 43   NGZ = 43
  (NGX  =168   NGY  =168   NGZ  =168)
  gives a total of  79507 points

 initial charge density was supplied:
 charge density of overlapping atoms calculated
 number of electron     896.0000000 magnetization 
 keeping initial charge density in first step


--------------------------------------------------------------------------------------------------------


 Maximum index for augmentation-charges         1106 (set IRDMAX)


--------------------------------------------------------------------------------------------------------


 First call to EWALD:  gamma=   0.154
 Maximum number of real-space cells 3x 3x 3
 Maximum number of reciprocal cells 3x 3x 3

    FEWALD:  cpu time    0.0029: real time    0.0029


--------------------------------------- Iteration      1(   1)  ---------------------------------------


    POTLOK:  cpu time    0.1349: real time    0.1386
    SETDIJ:  cpu time    0.0107: real time    0.0108
     EDDAV:  cpu time  114.0426: real time  114.3174
       DOS:  cpu time    0.0026: real time    0.0124
    --------------------------------------------
      LOOP:  cpu time  114.1909: real time  114.4792

 eigenvalue-minimisations  : 13240
 total energy-change (2. order) : 0.1542896E+05  (-0.3289251E+05)
 number of electron     896.0000000 magnetization 
 augmentation part      896.0000000 magnetization 

 Free energy of the ion-electron system (eV)
  ---------------------------------------------------
  alpha Z        PSCENC =      3918.90027600
  Ewald energy   TEWEN  =    -84421.77754199
  -Hartree energ DENC   =    -49440.79862599
  -exchange      EXHF   =         0.00000000
  -V(xc)+E(xc)   XCENC  =      4666.05959114
  PAW double counting   =    117543.41335672  -145381.04144143
  entropy T*S    EENTRO =        -0.00416120
  eigenvalues    EBANDS =      2385.04441952
  atomic energy  EATOM  =    166159.16208934
  Solvation  Ediel_sol  =         0.00000000
  ---------------------------------------------------
  free energy    TOTEN  =     15428.95796212 eV

  energy without entropy =    15428.96212332  energy(sigma->0) =    15428.96004272


--------------------------------------------------------------------------------------------------------




--------------------------------------- Iteration      1(   2)  ---------------------------------------


     EDDAV:  cpu time  114.3945: real time  114.6722
       DOS:  cpu time    0.0028: real time    0.0028
    --------------------------------------------
      LOOP:  cpu time  114.3972: real time  114.6750

 eigenvalue-minimisations  : 12960
 total energy-change (2. order) :-0.1216772E+05  (-0.1177010E+05)
 number of electron     896.0000000 magnetization 
 augmentation part      896.0000000 magnetization 

 Free energy of the ion-electron system (eV)
  ---------------------------------------------------
  alpha Z        PSCENC =      3918.90027600
  Ewald energy   TEWEN  =    -84421.77754199
  -Hartree energ DENC   =    -49440.79862599
  -exchange      EXHF   =         0.00000000
  -V(xc)+E(xc)   XCENC  =      4666.05959114
  PAW double counting   =    117543.41335672  -145381.04144143
  entropy T*S    EENTRO =        -0.00807375
  eigenvalues    EBANDS =     -9782.67239178
  atomic energy  EATOM  =    166159.16208934
  Solvation  Ediel_sol  =         0.00000000
  ---------------------------------------------------
  free energy    TOTEN  =      3261.23723828 eV

  energy without entropy =     3261.24531202  energy(sigma->0) =     3261.24127515


--------------------------------------------------------------------------------------------------------




--------------------------------------- Iteration      1(   3)  ---------------------------------------


     EDDAV:  cpu time  155.9084: real time  156.2772
       DOS:  cpu time    0.0032: real time    0.0043
    --------------------------------------------
      LOOP:  cpu time  155.9116: real time  156.2816

 eigenvalue-minimisations  : 12960
 total energy-change (2. order) :-0.2988700E+04  (-0.2841146E+04)
 number of electron     896.0000000 magnetization 
 augmentation part      896.0000000 magnetization 

 Free energy of the ion-electron system (eV)
  ---------------------------------------------------
  alpha Z        PSCENC =      3918.90027600
  Ewald energy   TEWEN  =    -84421.77754199
  -Hartree energ DENC   =    -49440.79862599
  -exchange      EXHF   =         0.00000000
  -V(xc)+E(xc)   XCENC  =      4666.05959114
  PAW double counting   =    117543.41335672  -145381.04144143
  entropy T*S    EENTRO =        -0.00750222
  eigenvalues    EBANDS =    -12771.37323013
  atomic energy  EATOM  =    166159.16208934
  Solvation  Ediel_sol  =         0.00000000
  ---------------------------------------------------
  free energy    TOTEN  =       272.53697145 eV

  energy without entropy =      272.54447367  energy(sigma->0) =      272.54072256


--------------------------------------------------------------------------------------------------------




--------------------------------------- Iteration      1(   4)  ---------------------------------------


     EDDAV:  cpu time  166.5364: real time  166.9308
       DOS:  cpu time    0.0024: real time    0.0035
    --------------------------------------------
      LOOP:  cpu time  166.5388: real time  166.9343

 eigenvalue-minimisations  : 14588
 total energy-change (2. order) :-0.5198281E+03  (-0.4795751E+03)
 number of electron     896.0000000 magnetization 
 augmentation part      896.0000000 magnetization 

 Free energy of the ion-electron system (eV)
  ---------------------------------------------------
  alpha Z        PSCENC =      3918.90027600
  Ewald energy   TEWEN  =    -84421.77754199
  -Hartree energ DENC   =    -49440.79862599
  -exchange      EXHF   =         0.00000000
  -V(xc)+E(xc)   XCENC  =      4666.05959114
  PAW double counting   =    117543.41335672  -145381.04144143
  entropy T*S    EENTRO =        -0.00000000
  eigenvalues    EBANDS =    -13291.20884349
  atomic energy  EATOM  =    166159.16208934
  Solvation  Ediel_sol  =         0.00000000
  ---------------------------------------------------
  free energy    TOTEN  =      -247.29113969 eV

  energy without entropy =     -247.29113969  energy(sigma->0) =     -247.29113969


--------------------------------------------------------------------------------------------------------




--------------------------------------- Iteration      1(   5)  ---------------------------------------


     EDDAV:  cpu time  158.4884: real time  158.8628
       DOS:  cpu time    0.0022: real time    0.0129
    CHARGE:  cpu time    2.9427: real time    2.9497
    MIXING:  cpu time    0.0042: real time    0.0043
    --------------------------------------------
      LOOP:  cpu time  161.4376: real time  161.8298

 eigenvalue-minimisations  : 14696
 total energy-change (2. order) :-0.4282208E+02  (-0.4168737E+02)
 number of electron     896.0001183 magnetization 
 augmentation part      539.3383020 magnetization 

 Broyden mixing:
  rms(total) = 0.18250E+01    rms(broyden)= 0.18250E+01
  rms(prec ) = 0.20607E+01
  weight for this iteration     100.00

 Free energy of the ion-electron system (eV)
  ---------------------------------------------------
  alpha Z        PSCENC =      3918.90027600
  Ewald energy   TEWEN  =    -84421.77754199
  -Hartree energ DENC   =    -49440.79862599
  -exchange      EXHF   =         0.00000000
  -V(xc)+E(xc)   XCENC  =      4666.05959114
  PAW double counting   =    117543.41335672  -145381.04144143
  entropy T*S    EENTRO =        -0.00000004
  eigenvalues    EBANDS =    -13334.03091913
  atomic energy  EATOM  =    166159.16208934
  Solvation  Ediel_sol  =         0.00000000
  ---------------------------------------------------
  free energy    TOTEN  =      -290.11321536 eV

  energy without entropy =     -290.11321533  energy(sigma->0) =     -290.11321535


--------------------------------------------------------------------------------------------------------




--------------------------------------- Iteration      1(   6)  ---------------------------------------


    POTLOK:  cpu time    0.1565: real time    0.1581
    SETDIJ:  cpu time    0.0131: real time    0.0131
     EDDAV:  cpu time  158.2379: real time  158.6125
       DOS:  cpu time    0.0021: real time    0.0021
    CHARGE:  cpu time    2.5482: real time    2.5542
    MIXING:  cpu time    0.0044: real time    0.0044
    --------------------------------------------
      LOOP:  cpu time  160.9621: real time  161.3444

 eigenvalue-minimisations  : 14392
 total energy-change (2. order) : 0.2243969E+00  (-0.1359801E+01)
 number of electron     896.0001183 magnetization 
 augmentation part      539.2508084 magnetization 

 Broyden mixing:
  rms(total) = 0.95943E+00    rms(broyden)= 0.95943E+00
  rms(prec ) = 0.11196E+01
  weight for this iteration     100.00

 eigenvalues of (default mixing * dielectric matrix)
  average eigenvalue GAMMA=   1.9590
  1.9590

 Free energy of the ion-electron system (eV)
  ---------------------------------------------------
  alpha Z        PSCENC =      3918.90027600
  Ewald energy   TEWEN  =    -84421.77754199
  -Hartree energ DENC   =    -49407.68595833
  -exchange      EXHF   =         0.00000000
  -V(xc)+E(xc)   XCENC  =      4660.63670002
  PAW double counting   =    128150.47182811  -156037.31884030
  entropy T*S    EENTRO =        -0.00000088
  eigenvalues    EBANDS =    -13312.27737043
  atomic energy  EATOM  =    166159.16208934
  Solvation  Ediel_sol  =         0.00000000
  ---------------------------------------------------
  free energy    TOTEN  =      -289.88881845 eV

  energy without entropy =     -289.88881758  energy(sigma->0) =     -289.88881801


--------------------------------------------------------------------------------------------------------




--------------------------------------- Iteration      1(   7)  ---------------------------------------


    POTLOK:  cpu time    0.1428: real time    0.1441
    SETDIJ:  cpu time    0.0124: real time    0.0125
     EDDAV:  cpu time  217.7441: real time  218.2580
       DOS:  cpu time    0.0029: real time    0.0745
    CHARGE:  cpu time    2.3879: real time    2.3935
    MIXING:  cpu time    0.0045: real time    0.0045
    --------------------------------------------
      LOOP:  cpu time  220.2946: real time  220.8872

 eigenvalue-minimisations  : 20320
 total energy-change (2. order) : 0.7663753E+00  (-0.1536600E+00)
 number of electron     896.0001183 magnetization 
 augmentation part      539.4106058 magnetization 

 Broyden mixing:
  rms(total) = 0.18022E+00    rms(broyden)= 0.18022E+00
  rms(prec ) = 0.21945E+00
  weight for this iteration     100.00

 eigenvalues of (default mixing * dielectric matrix)
  average eigenvalue GAMMA=   1.8327
  1.1123  2.5530

 Free energy of the ion-electron system (eV)
  ---------------------------------------------------
  alpha Z        PSCENC =      3918.90027600
  Ewald energy   TEWEN  =    -84421.77754199
  -Hartree energ DENC   =    -49426.18841849
  -exchange      EXHF   =         0.00000000
  -V(xc)+E(xc)   XCENC  =      4656.95542219
  PAW double counting   =    139763.25077796  -167739.72769045
  entropy T*S    EENTRO =        -0.00002257
  eigenvalues    EBANDS =    -13199.69733518
  atomic energy  EATOM  =    166159.16208934
  Solvation  Ediel_sol  =         0.00000000
  ---------------------------------------------------
  free energy    TOTEN  =      -289.12244319 eV

  energy without entropy =     -289.12242062  energy(sigma->0) =     -289.12243191


--------------------------------------------------------------------------------------------------------




--------------------------------------- Iteration      1(   8)  ---------------------------------------


    POTLOK:  cpu time    0.1332: real time    0.1499
    SETDIJ:  cpu time    0.0118: real time    0.0119
     EDDAV:  cpu time  169.3817: real time  169.7822
       DOS:  cpu time    0.0026: real time    0.0309
    CHARGE:  cpu time    2.5544: real time    2.5605
    MIXING:  cpu time    0.0046: real time    0.0047
    --------------------------------------------
      LOOP:  cpu time  172.0884: real time  172.5401

 eigenvalue-minimisations  : 14416
 total energy-change (2. order) :-0.3960153E-01  (-0.2010758E-01)
 number of electron     896.0001183 magnetization 
 augmentation part      539.4474822 magnetization 

 Broyden mixing:
  rms(total) = 0.58511E-01    rms(broyden)= 0.58511E-01
  rms(prec ) = 0.64923E-01
  weight for this iteration     100.00

 eigenvalues of (default mixing * dielectric matrix)
  average eigenvalue GAMMA=   1.9281
  0.9696  2.1687  2.6460

 Free energy of the ion-electron system (eV)
  ---------------------------------------------------
  alpha Z        PSCENC =      3918.90027600
  Ewald energy   TEWEN  =    -84421.77754199
  -Hartree energ DENC   =    -49435.08150434
  -exchange      EXHF   =         0.00000000
  -V(xc)+E(xc)   XCENC  =      4656.30081450
  PAW double counting   =    142255.14969075  -170249.12505650
  entropy T*S    EENTRO =        -0.00003286
  eigenvalues    EBANDS =    -13172.69077963
  atomic energy  EATOM  =    166159.16208934
  Solvation  Ediel_sol  =         0.00000000
  ---------------------------------------------------
  free energy    TOTEN  =      -289.16204472 eV

  energy without entropy =     -289.16201186  energy(sigma->0) =     -289.16202829


--------------------------------------------------------------------------------------------------------




--------------------------------------- Iteration      1(   9)  ---------------------------------------


    POTLOK:  cpu time    0.1366: real time    0.1625
    SETDIJ:  cpu time    0.0125: real time    0.0125
     EDDAV:  cpu time  157.4454: real time  157.8185
       DOS:  cpu time    0.0027: real time    0.0027
    CHARGE:  cpu time    2.4644: real time    2.4702
    MIXING:  cpu time    0.0046: real time    0.0046
    --------------------------------------------
      LOOP:  cpu time  160.0662: real time  160.4710

 eigenvalue-minimisations  : 14320
 total energy-change (2. order) :-0.2135288E-01  (-0.2952585E-02)
 number of electron     896.0001183 magnetization 
 augmentation part      539.4585695 magnetization 

 Broyden mixing:
  rms(total) = 0.14902E-01    rms(broyden)= 0.14902E-01
  rms(prec ) = 0.17445E-01
  weight for this iteration     100.00

 eigenvalues of (default mixing * dielectric matrix)
  average eigenvalue GAMMA=   1.8254
  2.9653  2.4916  1.0142  0.8306

 Free energy of the ion-electron system (eV)
  ---------------------------------------------------
  alpha Z        PSCENC =      3918.90027600
  Ewald energy   TEWEN  =    -84421.77754199
  -Hartree energ DENC   =    -49444.90081762
  -exchange      EXHF   =         0.00000000
  -V(xc)+E(xc)   XCENC  =      4656.62027002
  PAW double counting   =    141698.11027560  -169689.36737990
  entropy T*S    EENTRO =        -0.00002215
  eigenvalues    EBANDS =    -13165.93054691
  atomic energy  EATOM  =    166159.16208934
  Solvation  Ediel_sol  =         0.00000000
  ---------------------------------------------------
  free energy    TOTEN  =      -289.18339761 eV

  energy without entropy =     -289.18337546  energy(sigma->0) =     -289.18338653


--------------------------------------------------------------------------------------------------------




--------------------------------------- Iteration      1(  10)  ---------------------------------------


    POTLOK:  cpu time    0.1367: real time    0.1380
    SETDIJ:  cpu time    0.0121: real time    0.0122
     EDDAV:  cpu time  145.4797: real time  145.8233
       DOS:  cpu time    0.0029: real time    0.0029
    CHARGE:  cpu time    2.6187: real time    2.6249
    MIXING:  cpu time    0.0048: real time    0.0048
    --------------------------------------------
      LOOP:  cpu time  148.2549: real time  148.6060

 eigenvalue-minimisations  : 14864
 total energy-change (2. order) :-0.2408464E-02  (-0.7973371E-03)
 number of electron     896.0001183 magnetization 
 augmentation part      539.4692440 magnetization 

 Broyden mixing:
  rms(total) = 0.42189E-02    rms(broyden)= 0.42187E-02
  rms(prec ) = 0.50703E-02
  weight for this iteration     100.00

 eigenvalues of (default mixing * dielectric matrix)
  average eigenvalue GAMMA=   1.7786
  2.9982  2.5562  1.5622  0.9622  0.8141

 Free energy of the ion-electron system (eV)
  ---------------------------------------------------
  alpha Z        PSCENC =      3918.90027600
  Ewald energy   TEWEN  =    -84421.77754199
  -Hartree energ DENC   =    -49449.46790784
  -exchange      EXHF   =         0.00000000
  -V(xc)+E(xc)   XCENC  =      4656.78541523
  PAW double counting   =    141497.14421059  -169487.88569871
  entropy T*S    EENTRO =        -0.00001904
  eigenvalues    EBANDS =    -13162.04662966
  atomic energy  EATOM  =    166159.16208934
  Solvation  Ediel_sol  =         0.00000000
  ---------------------------------------------------
  free energy    TOTEN  =      -289.18580607 eV

  energy without entropy =     -289.18578703  energy(sigma->0) =     -289.18579655


--------------------------------------------------------------------------------------------------------




--------------------------------------- Iteration      1(  11)  ---------------------------------------


    POTLOK:  cpu time    0.1412: real time    0.1425
    SETDIJ:  cpu time    0.0121: real time    0.0121
     EDDAV:  cpu time  178.1105: real time  178.5315
       DOS:  cpu time    0.0028: real time    0.0348
    CHARGE:  cpu time    2.4784: real time    2.4843
    MIXING:  cpu time    0.0049: real time    0.0049
    --------------------------------------------
      LOOP:  cpu time  180.7499: real time  181.2101

 eigenvalue-minimisations  : 15336
 total energy-change (2. order) :-0.4190281E-03  (-0.3105080E-03)
 number of electron     896.0001183 magnetization 
 augmentation part      539.4785932 magnetization 

 Broyden mixing:
  rms(total) = 0.29824E-02    rms(broyden)= 0.29823E-02
  rms(prec ) = 0.32307E-02
  weight for this iteration     100.00

 eigenvalues of (default mixing * dielectric matrix)
  average eigenvalue GAMMA=   1.6876
  3.1700  2.5821  1.8584  0.9087  0.9087  0.6980

 Free energy of the ion-electron system (eV)
  ---------------------------------------------------
  alpha Z        PSCENC =      3918.90027600
  Ewald energy   TEWEN  =    -84421.77754199
  -Hartree energ DENC   =    -49451.62638747
  -exchange      EXHF   =         0.00000000
  -V(xc)+E(xc)   XCENC  =      4656.86506823
  PAW double counting   =    141507.45584720  -169499.24040057
  entropy T*S    EENTRO =        -0.00001852
  eigenvalues    EBANDS =    -13158.92515733
  atomic energy  EATOM  =    166159.16208934
  Solvation  Ediel_sol  =         0.00000000
  ---------------------------------------------------
  free energy    TOTEN  =      -289.18622510 eV

  energy without entropy =     -289.18620658  energy(sigma->0) =     -289.18621584


--------------------------------------------------------------------------------------------------------




--------------------------------------- Iteration      1(  12)  ---------------------------------------


    POTLOK:  cpu time    0.1335: real time    0.1855
    SETDIJ:  cpu time    0.0117: real time    0.0117
     EDDAV:  cpu time  171.5805: real time  171.9854
       DOS:  cpu time    0.0028: real time    0.0605
    CHARGE:  cpu time    2.5806: real time    2.5868
    MIXING:  cpu time    0.0052: real time    0.0052
    --------------------------------------------
      LOOP:  cpu time  174.3142: real time  174.8350

 eigenvalue-minimisations  : 14200
 total energy-change (2. order) :-0.5949498E-04  (-0.4429720E-04)
 number of electron     896.0001183 magnetization 
 augmentation part      539.4782894 magnetization 

 Broyden mixing:
  rms(total) = 0.23297E-02    rms(broyden)= 0.23297E-02
  rms(prec ) = 0.24058E-02
  weight for this iteration     100.00

 eigenvalues of (default mixing * dielectric matrix)
  average eigenvalue GAMMA=   1.6342
  3.3614  2.5904  2.1176  1.0087  1.0087  0.6763  0.6763

 Free energy of the ion-electron system (eV)
  ---------------------------------------------------
  alpha Z        PSCENC =      3918.90027600
  Ewald energy   TEWEN  =    -84421.77754199
  -Hartree energ DENC   =    -49452.40236657
  -exchange      EXHF   =         0.00000000
  -V(xc)+E(xc)   XCENC  =      4656.89215006
  PAW double counting   =    141520.08327872  -169512.42594316
  entropy T*S    EENTRO =        -0.00001827
  eigenvalues    EBANDS =    -13157.61820872
  atomic energy  EATOM  =    166159.16208934
  Solvation  Ediel_sol  =         0.00000000
  ---------------------------------------------------
  free energy    TOTEN  =      -289.18628459 eV

  energy without entropy =     -289.18626633  energy(sigma->0) =     -289.18627546


--------------------------------------------------------------------------------------------------------




--------------------------------------- Iteration      1(  13)  ---------------------------------------


    POTLOK:  cpu time    0.1372: real time    0.1386
    SETDIJ:  cpu time    0.0118: real time    0.0118
     EDDAV:  cpu time  165.6707: real time  166.0614
       DOS:  cpu time    0.0029: real time    0.0029
    CHARGE:  cpu time    2.8503: real time    2.8571
    MIXING:  cpu time    0.0056: real time    0.0056
    --------------------------------------------
      LOOP:  cpu time  168.6786: real time  169.0775

 eigenvalue-minimisations  : 14248
 total energy-change (2. order) :-0.8431904E-05  (-0.6141053E-05)
 number of electron     896.0001183 magnetization 
 augmentation part      539.4782290 magnetization 

 Broyden mixing:
  rms(total) = 0.14712E-02    rms(broyden)= 0.14712E-02
  rms(prec ) = 0.15018E-02
  weight for this iteration     100.00

 eigenvalues of (default mixing * dielectric matrix)
  average eigenvalue GAMMA=   1.6019
  3.1864  2.5583  2.1548  1.2932  1.2932  0.9388  0.8315  0.5587

 Free energy of the ion-electron system (eV)
  ---------------------------------------------------
  alpha Z        PSCENC =      3918.90027600
  Ewald energy   TEWEN  =    -84421.77754199
  -Hartree energ DENC   =    -49452.68306308
  -exchange      EXHF   =         0.00000000
  -V(xc)+E(xc)   XCENC  =      4656.90060462
  PAW double counting   =    141536.92767793  -169529.55311810
  entropy T*S    EENTRO =        -0.00001815
  eigenvalues    EBANDS =    -13157.06319959
  atomic energy  EATOM  =    166159.16208934
  Solvation  Ediel_sol  =         0.00000000
  ---------------------------------------------------
  free energy    TOTEN  =      -289.18629303 eV

  energy without entropy =     -289.18627487  energy(sigma->0) =     -289.18628395


--------------------------------------------------------------------------------------------------------




--------------------------------------- Iteration      1(  14)  ---------------------------------------


    POTLOK:  cpu time    0.1485: real time    0.1497
    SETDIJ:  cpu time    0.0123: real time    0.0124
     EDDAV:  cpu time  219.9745: real time  220.4939
       DOS:  cpu time    0.0027: real time    0.0027
    CHARGE:  cpu time    2.6502: real time    2.6565
    MIXING:  cpu time    0.0057: real time    0.0057
    --------------------------------------------
      LOOP:  cpu time  222.7939: real time  223.3208

 eigenvalue-minimisations  : 19720
 total energy-change (2. order) :-0.1884328E-05  (-0.3403211E-05)
 number of electron     896.0001183 magnetization 
 augmentation part      539.4777356 magnetization 

 Broyden mixing:
  rms(total) = 0.64389E-03    rms(broyden)= 0.64389E-03
  rms(prec ) = 0.66429E-03
  weight for this iteration     100.00

 eigenvalues of (default mixing * dielectric matrix)
  average eigenvalue GAMMA=   1.5504
  3.1710  2.5468  1.9421  1.9421  1.3682  0.9545  0.8251  0.6020  0.6020

 Free energy of the ion-electron system (eV)
  ---------------------------------------------------
  alpha Z        PSCENC =      3918.90027600
  Ewald energy   TEWEN  =    -84421.77754199
  -Hartree energ DENC   =    -49452.44033931
  -exchange      EXHF   =         0.00000000
  -V(xc)+E(xc)   XCENC  =      4656.89068844
  PAW double counting   =    141550.92776980  -169543.49440854
  entropy T*S    EENTRO =        -0.00001819
  eigenvalues    EBANDS =    -13157.35481045
  atomic energy  EATOM  =    166159.16208934
  Solvation  Ediel_sol  =         0.00000000
  ---------------------------------------------------
  free energy    TOTEN  =      -289.18629491 eV

  energy without entropy =     -289.18627672  energy(sigma->0) =     -289.18628582


--------------------------------------------------------------------------------------------------------




--------------------------------------- Iteration      1(  15)  ---------------------------------------


    POTLOK:  cpu time    0.1436: real time    0.1456
    SETDIJ:  cpu time    0.0123: real time    0.0123
     EDDAV:  cpu time  151.8813: real time  152.2396
       DOS:  cpu time    0.0029: real time    0.0029
    CHARGE:  cpu time    3.0067: real time    3.0138
    MIXING:  cpu time    0.0059: real time    0.0060
    --------------------------------------------
      LOOP:  cpu time  155.0526: real time  155.4201

 eigenvalue-minimisations  : 13976
 total energy-change (2. order) :-0.4746835E-06  (-0.1280407E-05)
 number of electron     896.0001183 magnetization 
 augmentation part      539.4778131 magnetization 

 Broyden mixing:
  rms(total) = 0.34571E-03    rms(broyden)= 0.34571E-03
  rms(prec ) = 0.36438E-03
  weight for this iteration     100.00

 eigenvalues of (default mixing * dielectric matrix)
  average eigenvalue GAMMA=   1.5401
  3.2565  2.5332  2.4414  1.9977  1.1978  0.9346  0.9346  0.7618  0.7618  0.5814

 Free energy of the ion-electron system (eV)
  ---------------------------------------------------
  alpha Z        PSCENC =      3918.90027600
  Ewald energy   TEWEN  =    -84421.77754199
  -Hartree energ DENC   =    -49452.38950325
  -exchange      EXHF   =         0.00000000
  -V(xc)+E(xc)   XCENC  =      4656.88839680
  PAW double counting   =    141555.16884658  -169547.71191554
  entropy T*S    EENTRO =        -0.00001817
  eigenvalues    EBANDS =    -13157.42692516
  atomic energy  EATOM  =    166159.16208934
  Solvation  Ediel_sol  =         0.00000000
  ---------------------------------------------------
  free energy    TOTEN  =      -289.18629538 eV

  energy without entropy =     -289.18627722  energy(sigma->0) =     -289.18628630


--------------------------------------------------------------------------------------------------------




--------------------------------------- Iteration      1(  16)  ---------------------------------------


    POTLOK:  cpu time    0.1456: real time    0.1479
    SETDIJ:  cpu time    0.0118: real time    0.0118
     EDDAV:  cpu time  184.5514: real time  184.9869
       DOS:  cpu time    0.0030: real time    0.0030
    CHARGE:  cpu time    3.0937: real time    3.1010
    MIXING:  cpu time    0.0066: real time    0.0066
    --------------------------------------------
      LOOP:  cpu time  187.8121: real time  188.2573

 eigenvalue-minimisations  : 16288
 total energy-change (2. order) : 0.3686291E-06  (-0.5853962E-07)
 number of electron     896.0001183 magnetization 
 augmentation part      539.4778319 magnetization 

 Broyden mixing:
  rms(total) = 0.11048E-03    rms(broyden)= 0.11048E-03
  rms(prec ) = 0.11834E-03
  weight for this iteration     100.00

 eigenvalues of (default mixing * dielectric matrix)
  average eigenvalue GAMMA=   1.5516
  3.1708  2.6595  2.6181  2.2139  1.3037  1.0414  1.0020  1.0020  0.7789  0.6387
  0.6387

 Free energy of the ion-electron system (eV)
  ---------------------------------------------------
  alpha Z        PSCENC =      3918.90027600
  Ewald energy   TEWEN  =    -84421.77754199
  -Hartree energ DENC   =    -49452.39188892
  -exchange      EXHF   =         0.00000000
  -V(xc)+E(xc)   XCENC  =      4656.88818378
  PAW double counting   =    141558.44251302  -169551.00527003
  entropy T*S    EENTRO =        -0.00001815
  eigenvalues    EBANDS =    -13157.40463807
  atomic energy  EATOM  =    166159.16208934
  Solvation  Ediel_sol  =         0.00000000
  ---------------------------------------------------
  free energy    TOTEN  =      -289.18629502 eV

  energy without entropy =     -289.18627687  energy(sigma->0) =     -289.18628594


--------------------------------------------------------------------------------------------------------




--------------------------------------- Iteration      1(  17)  ---------------------------------------


    POTLOK:  cpu time    0.1525: real time    0.1539
    SETDIJ:  cpu time    0.0123: real time    0.0123
     EDDAV:  cpu time  179.2384: real time  179.6613
       DOS:  cpu time    0.0032: real time    0.0032
    CHARGE:  cpu time    3.1636: real time    3.1710
    MIXING:  cpu time    0.0071: real time    0.0071
    --------------------------------------------
      LOOP:  cpu time  182.5771: real time  183.0088

 eigenvalue-minimisations  : 16152
 total energy-change (2. order) :-0.4621688E-07  (-0.7847678E-07)
 number of electron     896.0001183 magnetization 
 augmentation part      539.4778107 magnetization 

 Broyden mixing:
  rms(total) = 0.72883E-04    rms(broyden)= 0.72881E-04
  rms(prec ) = 0.81028E-04
  weight for this iteration     100.00

 eigenvalues of (default mixing * dielectric matrix)
  average eigenvalue GAMMA=   1.5353
  3.2230  2.8017  2.5060  2.2305  1.3760  1.1084  1.1084  1.0312  0.8866  0.7799
  0.7799  0.5927

 Free energy of the ion-electron system (eV)
  ---------------------------------------------------
  alpha Z        PSCENC =      3918.90027600
  Ewald energy   TEWEN  =    -84421.77754199
  -Hartree energ DENC   =    -49452.38185727
  -exchange      EXHF   =         0.00000000
  -V(xc)+E(xc)   XCENC  =      4656.88780999
  PAW double counting   =    141559.08623182  -169551.65528205
  entropy T*S    EENTRO =        -0.00001815
  eigenvalues    EBANDS =    -13157.40800276
  atomic energy  EATOM  =    166159.16208934
  Solvation  Ediel_sol  =         0.00000000
  ---------------------------------------------------
  free energy    TOTEN  =      -289.18629506 eV

  energy without entropy =     -289.18627692  energy(sigma->0) =     -289.18628599


--------------------------------------------------------------------------------------------------------




--------------------------------------- Iteration      1(  18)  ---------------------------------------


    POTLOK:  cpu time    0.1545: real time    0.1560
    SETDIJ:  cpu time    0.0125: real time    0.0125
     EDDAV:  cpu time  156.3832: real time  156.7522
       DOS:  cpu time    0.0027: real time    0.0027
    CHARGE:  cpu time    2.4094: real time    2.4151
    MIXING:  cpu time    0.0066: real time    0.0066
    --------------------------------------------
      LOOP:  cpu time  158.9688: real time  159.3450

 eigenvalue-minimisations  : 13672
 total energy-change (2. order) :-0.2637680E-06  (-0.2166290E-06)
 number of electron     896.0001183 magnetization 
 augmentation part      539.4777644 magnetization 

 Broyden mixing:
  rms(total) = 0.74396E-04    rms(broyden)= 0.74389E-04
  rms(prec ) = 0.81455E-04
  weight for this iteration     100.00

 eigenvalues of (default mixing * dielectric matrix)
  average eigenvalue GAMMA=   1.4940
  3.2445  2.7272  2.5243  2.4193  1.4302  1.1538  1.1538  1.0386  0.9254  0.7853
  0.7853  0.6173  0.6173

 Free energy of the ion-electron system (eV)
  ---------------------------------------------------
  alpha Z        PSCENC =      3918.90027600
  Ewald energy   TEWEN  =    -84421.77754199
  -Hartree energ DENC   =    -49452.39056598
  -exchange      EXHF   =         0.00000000
  -V(xc)+E(xc)   XCENC  =      4656.88814632
  PAW double counting   =    141558.92934252  -169551.50542165
  entropy T*S    EENTRO =        -0.00001814
  eigenvalues    EBANDS =    -13157.39260176
  atomic energy  EATOM  =    166159.16208934
  Solvation  Ediel_sol  =         0.00000000
  ---------------------------------------------------
  free energy    TOTEN  =      -289.18629533 eV

  energy without entropy =     -289.18627718  energy(sigma->0) =     -289.18628625


--------------------------------------------------------------------------------------------------------




--------------------------------------- Iteration      1(  19)  ---------------------------------------


    POTLOK:  cpu time    0.1341: real time    0.1354
    SETDIJ:  cpu time    0.0114: real time    0.0115
     EDDAV:  cpu time  142.5510: real time  142.8876
       DOS:  cpu time    0.0027: real time    0.0027
    CHARGE:  cpu time    2.4955: real time    2.5014
    MIXING:  cpu time    0.0068: real time    0.0068
    --------------------------------------------
      LOOP:  cpu time  145.2015: real time  145.5454

 eigenvalue-minimisations  : 11344
 total energy-change (2. order) : 0.2825982E-07  (-0.2936866E-07)
 number of electron     896.0001183 magnetization 
 augmentation part      539.4777684 magnetization 

 Broyden mixing:
  rms(total) = 0.46491E-04    rms(broyden)= 0.46491E-04
  rms(prec ) = 0.51329E-04
  weight for this iteration     100.00

 eigenvalues of (default mixing * dielectric matrix)
  average eigenvalue GAMMA=   1.4707
  3.2894  2.6785  2.5365  2.1985  1.4999  1.4999  1.3387  1.0596  0.9432  0.8239
  0.8239  0.5932  0.6520  0.6520

 Free energy of the ion-electron system (eV)
  ---------------------------------------------------
  alpha Z        PSCENC =      3918.90027600
  Ewald energy   TEWEN  =    -84421.77754199
  -Hartree energ DENC   =    -49452.38804945
  -exchange      EXHF   =         0.00000000
  -V(xc)+E(xc)   XCENC  =      4656.88803798
  PAW double counting   =    141558.89190883  -169551.46553354
  entropy T*S    EENTRO =        -0.00001814
  eigenvalues    EBANDS =    -13157.39746433
  atomic energy  EATOM  =    166159.16208934
  Solvation  Ediel_sol  =         0.00000000
  ---------------------------------------------------
  free energy    TOTEN  =      -289.18629530 eV

  energy without entropy =     -289.18627716  energy(sigma->0) =     -289.18628623


--------------------------------------------------------------------------------------------------------




--------------------------------------- Iteration      1(  20)  ---------------------------------------


    POTLOK:  cpu time    0.1381: real time    0.1393
    SETDIJ:  cpu time    0.0121: real time    0.0121
     EDDAV:  cpu time  177.3466: real time  177.7652
       DOS:  cpu time    0.0029: real time    0.0189
    CHARGE:  cpu time    2.5295: real time    2.5355
    MIXING:  cpu time    0.0071: real time    0.0071
    --------------------------------------------
      LOOP:  cpu time  180.0363: real time  180.4782

 eigenvalue-minimisations  : 15784
 total energy-change (2. order) :-0.4685717E-07  (-0.9895716E-08)
 number of electron     896.0001183 magnetization 
 augmentation part      539.4777642 magnetization 

 Broyden mixing:
  rms(total) = 0.42098E-04    rms(broyden)= 0.42098E-04
  rms(prec ) = 0.46713E-04
  weight for this iteration     100.00

 eigenvalues of (default mixing * dielectric matrix)
  average eigenvalue GAMMA=   1.4063
  3.2825  2.7204  2.5113  2.2298  1.4977  1.4977  1.3651  1.0515  0.9405  0.8164
  0.8164  0.6556  0.6556  0.5821  0.4710

 Free energy of the ion-electron system (eV)
  ---------------------------------------------------
  alpha Z        PSCENC =      3918.90027600
  Ewald energy   TEWEN  =    -84421.77754199
  -Hartree energ DENC   =    -49452.39092543
  -exchange      EXHF   =         0.00000000
  -V(xc)+E(xc)   XCENC  =      4656.88813692
  PAW double counting   =    141558.83978053  -169551.41478471
  entropy T*S    EENTRO =        -0.00001814
  eigenvalues    EBANDS =    -13157.39330788
  atomic energy  EATOM  =    166159.16208934
  Solvation  Ediel_sol  =         0.00000000
  ---------------------------------------------------
  free energy    TOTEN  =      -289.18629534 eV

  energy without entropy =     -289.18627720  energy(sigma->0) =     -289.18628627


--------------------------------------------------------------------------------------------------------




--------------------------------------- Iteration      1(  21)  ---------------------------------------


    POTLOK:  cpu time    0.1462: real time    0.1475
    SETDIJ:  cpu time    0.0117: real time    0.0117
     EDDAV:  cpu time  133.0605: real time  133.3746
       DOS:  cpu time    0.0029: real time    0.0029
    CHARGE:  cpu time    3.0562: real time    3.0635
    MIXING:  cpu time    0.0080: real time    0.0080
    --------------------------------------------
      LOOP:  cpu time  136.2856: real time  136.6082

 eigenvalue-minimisations  : 11480
 total energy-change (2. order) :-0.2793968E-07  (-0.2694527E-07)
 number of electron     896.0001183 magnetization 
 augmentation part      539.4777632 magnetization 

 Broyden mixing:
  rms(total) = 0.45774E-04    rms(broyden)= 0.45773E-04
  rms(prec ) = 0.50073E-04
  weight for this iteration     100.00

 eigenvalues of (default mixing * dielectric matrix)
  average eigenvalue GAMMA=   1.3381
  3.2817  2.7417  2.5039  2.2105  1.5304  1.5304  1.3589  1.0518  0.9401  0.8115
  0.8115  0.7289  0.7289  0.5729  0.5330  0.0728

 Free energy of the ion-electron system (eV)
  ---------------------------------------------------
  alpha Z        PSCENC =      3918.90027600
  Ewald energy   TEWEN  =    -84421.77754199
  -Hartree energ DENC   =    -49452.39088898
  -exchange      EXHF   =         0.00000000
  -V(xc)+E(xc)   XCENC  =      4656.88813594
  PAW double counting   =    141558.83045576  -169551.40540918
  entropy T*S    EENTRO =        -0.00001814
  eigenvalues    EBANDS =    -13157.39339413
  atomic energy  EATOM  =    166159.16208934
  Solvation  Ediel_sol  =         0.00000000
  ---------------------------------------------------
  free energy    TOTEN  =      -289.18629537 eV

  energy without entropy =     -289.18627723  energy(sigma->0) =     -289.18628630


--------------------------------------------------------------------------------------------------------




--------------------------------------- Iteration      1(  22)  ---------------------------------------


    POTLOK:  cpu time    0.1536: real time    0.1553
    SETDIJ:  cpu time    0.0122: real time    0.0122
     EDDAV:  cpu time  104.5010: real time  104.7476
       DOS:  cpu time    0.0028: real time    0.0085
    --------------------------------------------
      LOOP:  cpu time  104.6696: real time  104.9237

 eigenvalue-minimisations  :  7296
 total energy-change (2. order) :-0.6344635E-08  (-0.4127475E-09)
 number of electron     896.0001183 magnetization 
 augmentation part      539.4777632 magnetization 

 Free energy of the ion-electron system (eV)
  ---------------------------------------------------
  alpha Z        PSCENC =      3918.90027600
  Ewald energy   TEWEN  =    -84421.77754199
  -Hartree energ DENC   =    -49452.39137417
  -exchange      EXHF   =         0.00000000
  -V(xc)+E(xc)   XCENC  =      4656.88815342
  PAW double counting   =    141558.82855090  -169551.40382151
  entropy T*S    EENTRO =        -0.00001814
  eigenvalues    EBANDS =    -13157.39260922
  atomic energy  EATOM  =    166159.16208934
  Solvation  Ediel_sol  =         0.00000000
  ---------------------------------------------------
  free energy    TOTEN  =      -289.18629538 eV

  energy without entropy =     -289.18627724  energy(sigma->0) =     -289.18628631


--------------------------------------------------------------------------------------------------------




 average (electrostatic) potential at core
  the test charge radii are     0.9911
  (the norm of the test charge is              1.0000)
       1 -74.8245       2 -74.8244       3 -74.8244       4 -74.8245       5 -74.8245
       6 -74.8244       7 -74.8244       8 -74.8246       9 -74.8216      10 -74.8248
      11 -74.8248      12 -74.8231      13 -74.8248      14 -74.8242      15 -74.8242
      16 -74.8247      17 -74.8222      18 -74.8268      19 -74.8268      20 -74.8222
      21 -74.8249      22 -74.8241      23 -74.8241      24 -74.8249      25 -74.8248
      26 -74.8231      27 -74.8216      28 -74.8248      29 -74.8242      30 -74.8247
      31 -74.8248      32 -74.8242      33 -74.8245      34 -74.8245      35 -74.8244
      36 -74.8244      37 -74.8245      38 -74.8245      39 -74.8245      40 -74.8245
      41 -74.8274      42 -74.8242      43 -74.8242      44 -74.8258      45 -74.8241
      46 -74.8247      47 -74.8247      48 -74.8242      49 -74.8245      50 -74.8244
      51 -74.8245      52 -74.8244      53 -74.8245      54 -74.8245      55 -74.8245
      56 -74.8245      57 -74.8242      58 -74.8258      59 -74.8274      60 -74.8242
      61 -74.8247      62 -74.8242      63 -74.8241      64 -74.8247
 
 
 
 E-fermi :   4.4517     XC(G=0):  -9.6656     alpha+bet : -9.8562


 k-point     1 :       0.1250    0.1250    0.1250
  band No.  band energies     occupation 
      1     -20.3200      2.00000
      2     -20.3198      2.00000
      3     -20.3197      2.00000
      4     -20.3195      2.00000
      5     -20.3195      2.00000
      6     -20.3193      2.00000
      7     -20.3170      2.00000
      8     -20.3169      2.00000
      9     -20.3168      2.00000
     10     -20.3160      2.00000
     11     -20.3157      2.00000
     12     -20.3155      2.00000
     13     -20.3155      2.00000
     14     -20.3154      2.00000
     15     -20.3153      2.00000
     16     -20.3121      2.00000
     17     -20.3120      2.00000
     18     -20.3119      2.00000
     19     -20.3118      2.00000
     20     -20.3117      2.00000
     21     -20.3115      2.00000
     22     -20.3088      2.00000
     23     -20.3087      2.00000
     24     -20.3084      2.00000
     25     -20.3070      2.00000
     26     -20.3068      2.00000
     27     -20.3067      2.00000
     28     -20.3066      2.00000
     29     -20.3064      2.00000
     30     -20.3064      2.00000
     31     -20.3063      2.00000
     32     -20.3062      2.00000
     33     -20.3060      2.00000
     34     -20.3060      2.00000
     35     -20.3058      2.00000
     36     -20.3057      2.00000
     37     -20.3056      2.00000
     38     -20.3056      2.00000
     39     -20.3054      2.00000
     40     -20.3038      2.00000
     41     -20.3036      2.00000
     42     -20.3034      2.00000
     43     -20.3022      2.00000
     44     -20.3019      2.00000
     45     -20.3017      2.00000
     46     -20.2991      2.00000
     47     -20.2989      2.00000
     48     -20.2987      2.00000
     49     -20.2985      2.00000
     50     -20.2984      2.00000
     51     -20.2984      2.00000
     52     -20.2981      2.00000
     53     -20.2979      2.00000
     54     -20.2961      2.00000
     55     -20.2959      2.00000
     56     -20.2957      2.00000
     57     -20.2938      2.00000
     58     -20.2935      2.00000
     59     -20.2933      2.00000
     60     -20.2905      2.00000
     61     -20.2903      2.00000
     62     -20.2901      2.00000
     63     -20.2794      2.00000
     64     -20.2793      2.00000
     65     -20.2791      2.00000
     66     -20.2791      2.00000
     67     -20.2790      2.00000
     68     -20.2765      2.00000
     69     -20.2754      2.00000
     70     -20.2752      2.00000
     71     -20.2752      2.00000
     72     -20.2619      2.00000
     73     -20.2572      2.00000
     74     -20.2571      2.00000
     75     -20.2570      2.00000
     76     -20.2482      2.00000
     77     -20.2481      2.00000
     78     -20.2480      2.00000
     79     -20.2424      2.00000
     80     -20.2423      2.00000
     81     -20.2401      2.00000
     82     -20.2399      2.00000
     83     -20.2399      2.00000
     84     -20.2397      2.00000
     85     -20.2396      2.00000
     86     -20.2396      2.00000
     87     -20.2381      2.00000
     88     -20.2381      2.00000
     89     -20.2379      2.00000
     90     -20.2334      2.00000
     91     -20.2333      2.00000
     92     -20.2332      2.00000
     93     -20.2222      2.00000
     94     -20.2221      2.00000
     95     -20.2220      2.00000
     96     -20.2181      2.00000
     97     -20.2181      2.00000
     98     -20.2180      2.00000
     99     -20.2142      2.00000
    100     -20.2140      2.00000
    101     -20.2139      2.00000
    102     -20.2096      2.00000
    103     -20.2096      2.00000
    104     -20.2089      2.00000
    105     -20.2089      2.00000
    106     -20.2087      2.00000
    107     -20.2086      2.00000
    108     -20.2086      2.00000
    109     -20.2085      2.00000
    110     -20.2085      2.00000
    111     -20.2084      2.00000
    112     -20.2084      2.00000
    113     -20.2074      2.00000
    114     -20.2072      2.00000
    115     -20.2071      2.00000
    116     -20.2067      2.00000
    117     -20.2066      2.00000
    118     -20.2066      2.00000
    119     -20.2058      2.00000
    120     -20.2058      2.00000
    121     -20.2056      2.00000
    122     -20.2056      2.00000
    123     -20.2054      2.00000
    124     -20.2053      2.00000
    125     -20.1973      2.00000
    126     -20.1973      2.00000
    127     -20.1972      2.00000
    128     -20.1964      2.00000
    129     -20.1963      2.00000
    130     -20.1962      2.00000
    131     -20.1933      2.00000
    132     -20.1932      2.00000
    133     -20.1931      2.00000
    134     -20.1836      2.00000
    135     -20.1836      2.00000
    136     -20.1836      2.00000
    137     -20.1834      2.00000
    138     -20.1833      2.00000
    139     -20.1833      2.00000
    140     -20.1827      2.00000
    141     -20.1827      2.00000
    142     -20.1825      2.00000
    143     -20.1824      2.00000
    144     -20.1823      2.00000
    145     -20.1823      2.00000
    146     -20.1778      2.00000
    147     -20.1777      2.00000
    148     -20.1775      2.00000
    149     -20.1760      2.00000
    150     -20.1760      2.00000
    151     -20.1759      2.00000
    152     -20.1625      2.00000
    153     -20.1625      2.00000
    154     -20.1623      2.00000
    155     -20.1622      2.00000
    156     -20.1621      2.00000
    157     -20.1620      2.00000
    158     -20.1569      2.00000
    159     -20.1568      2.00000
    160     -20.1567      2.00000
    161     -20.1485      2.00000
    162     -20.1485      2.00000
    163     -20.1484      2.00000
    164     -20.1439      2.00000
    165     -20.1438      2.00000
    166     -20.1437      2.00000
    167     -20.1437      2.00000
    168     -20.1435      2.00000
    169     -20.1434      2.00000
    170     -20.1382      2.00000
    171     -20.1380      2.00000
    172     -20.1379      2.00000
    173     -20.1360      2.00000
    174     -20.1359      2.00000
    175     -20.1359      2.00000
    176     -20.1358      2.00000
    177     -20.1358      2.00000
    178     -20.1358      2.00000
    179     -20.1275      2.00000
    180     -20.1274      2.00000
    181     -20.1274      2.00000
    182     -20.1273      2.00000
    183     -20.1272      2.00000
    184     -20.1272      2.00000
    185     -20.1262      2.00000
    186     -20.1262      2.00000
    187     -20.1259      2.00000
    188     -20.1247      2.00000
    189     -20.1246      2.00000
    190     -20.1246      2.00000
    191     -20.1189      2.00000
    192     -20.1188      2.00000
    193     -20.1187      2.00000
    194     -20.1148      2.00000
    195     -20.1148      2.00000
    196     -20.1148      2.00000
    197     -20.1146      2.00000
    198     -20.1146      2.00000
    199     -20.1146      2.00000
    200     -20.1140      2.00000
    201     -20.1140      2.00000
    202     -20.1138      2.00000
    203     -20.1100      2.00000
    204     -20.1100      2.00000
    205     -20.1099      2.00000
    206     -20.0989      2.00000
    207     -20.0989      2.00000
    208     -20.0989      2.00000
    209     -20.0988      2.00000
    210     -20.0987      2.00000
    211     -20.0987      2.00000
    212     -20.0981      2.00000
    213     -20.0981      2.00000
    214     -20.0980      2.00000
    215     -20.0971      2.00000
    216     -20.0970      2.00000
    217     -20.0969      2.00000
    218     -20.0960      2.00000
    219     -20.0959      2.00000
    220     -20.0958      2.00000
    221     -20.0957      2.00000
    222     -20.0957      2.00000
    223     -20.0956      2.00000
    224     -20.0953      2.00000
    225     -20.0953      2.00000
    226     -20.0952      2.00000
    227     -20.0951      2.00000
    228     -20.0950      2.00000
    229     -20.0949      2.00000
    230     -20.0942      2.00000
    231     -20.0942      2.00000
    232     -20.0897      2.00000
    233     -20.0897      2.00000
    234     -20.0896      2.00000
    235     -20.0880      2.00000
    236     -20.0878      2.00000
    237     -20.0877      2.00000
    238     -20.0848      2.00000
    239     -20.0847      2.00000
    240     -20.0847      2.00000
    241     -20.0834      2.00000
    242     -20.0833      2.00000
    243     -20.0832      2.00000
    244     -20.0794      2.00000
    245     -20.0757      2.00000
    246     -20.0756      2.00000
    247     -20.0754      2.00000
    248     -20.0668      2.00000
    249     -20.0667      2.00000
    250     -20.0629      2.00000
[...]
  0.000   0.000   0.000   0.015  -0.000   0.000   0.000   0.000   0.038  -0.000  -0.000   0.000   0.201   0.003   0.000  -0.034
  0.000  -0.000   0.000   0.000   0.008   0.000  -0.000   0.000  -0.000   0.011  -0.000   0.000  -0.000   0.000  -0.001   0.000
  0.000   0.002   0.000  -0.000  -0.000   0.000   0.004   0.000  -0.000  -0.000   3.348  -0.941   0.000   0.000   0.011   0.000
  0.000  -0.001  -0.000   0.000   0.000   0.000  -0.002  -0.000   0.000   0.000  -0.941   0.435  -0.000   0.000  -0.006   0.000
  0.001   0.000   0.000   0.049   0.000   0.003   0.000   0.000   0.201  -0.000   0.000  -0.000   1.901   0.015   0.000  -0.308
  0.049   0.000   0.000   0.001   0.000   0.201   0.000   0.000   0.003   0.000   0.000   0.000   0.015   1.901   0.000  -0.004
 -0.000   0.049   0.000   0.000  -0.000  -0.000   0.201   0.000   0.000  -0.001   0.011  -0.006   0.000   0.000   1.900   0.000
 -0.000   0.000   0.000  -0.015   0.000  -0.001   0.000  -0.000  -0.034   0.000   0.000   0.000  -0.308  -0.004   0.000   0.057
 -0.015  -0.000   0.000  -0.000   0.000  -0.034  -0.000   0.000  -0.001   0.000   0.000   0.000  -0.004  -0.308   0.000   0.001
  0.000  -0.015  -0.000   0.000   0.000   0.000  -0.034  -0.000   0.000   0.000  -0.003   0.002   0.000   0.000  -0.308   0.000


------------------------ aborting loop because EDIFF is reached ----------------------------------------


    CHARGE:  cpu time    2.4631: real time    2.4689
    FORLOC:  cpu time    0.0669: real time    0.0671
    FORNL :  cpu time  102.5854: real time  102.8273
    STRESS:  cpu time  198.9592: real time  199.4285
    FORCOR:  cpu time    0.2124: real time    0.2147
    FORHAR:  cpu time    0.1006: real time    0.1009
    MIXING:  cpu time    0.0075: real time    0.0076
    OFIELD:  cpu time    0.0000: real time    0.0000

  FORCE on cell =-STRESS in cart. coord.  units (eV):
  Direction    XX          YY          ZZ          XY          YZ          ZX
  --------------------------------------------------------------------------------------
  Alpha Z  3918.90028  3918.90028  3918.90028
  Ewald  -28140.85674-28140.72540-28140.72540    -0.00000     9.85134    -0.00000
  Hartree 16484.07717 16484.16005 16484.16005    -0.00000     5.91435    -0.00000
  E(xc)   -5266.16998 -5266.16988 -5266.16988    -0.00000     0.00886    -0.00000
  Local   -1487.83385 -1488.04691 -1488.04691    -0.00000   -15.65132    -0.00000
  n-local  1818.79843  1818.62738  1818.97338    -0.00126     0.13653    -6.89466
  augment  8064.68252  8064.68275  8064.68275     0.00000    -0.05254    -0.00000
  Kinetic  4606.57788  4606.77813  4606.37605     0.00037    -0.12486   -10.26358
  Fock        0.00000     0.00000     0.00000     0.00000     0.00000     0.00000
  -------------------------------------------------------------------------------------
  Total      -1.82430    -1.82164    -1.82164     0.00000     0.08236     0.00000
  in kB      -1.90898    -1.90620    -1.90620     0.00000     0.08619     0.00000
  external pressure =       -1.91 kB  Pullay stress =        0.00 kB


 VOLUME and BASIS-vectors are now :
 -----------------------------------------------------------------------------
  energy-cutoff  :      500.00
  volume of cell :     1531.10
      direct lattice vectors                 reciprocal lattice vectors
    11.525724411  0.000000000  0.000000000     0.086762442  0.000000000  0.000000000
     0.000000000 11.525724411  0.000000000     0.000000000  0.086762442  0.000000000
     0.000000000  0.000000000 11.525724411     0.000000000  0.000000000  0.086762442

  length of vectors
    11.525724411 11.525724411 11.525724411     0.086762442  0.086762442  0.086762442


 FORCES acting on ions
    electron-ion (+dipol)            ewald-force                    non-local-force                 convergence-correction
 -----------------------------------------------------------------------------------------------
   0.546E+01 -.828E-08 0.112E-04   -.561E+01 -.142E-13 -.924E-13   0.265E-01 0.434E-18 0.000E+00   -.117E-04 -.155E-13 0.857E-12
   0.234E+00 -.200E-12 0.852E-11   -.231E+00 0.213E-12 -.497E-13   -.276E-02 -.206E-17 0.000E+00   -.127E-04 -.408E-13 -.147E-11
   0.234E+00 0.771E-11 0.249E-11   -.231E+00 0.817E-13 -.817E-13   -.276E-02 -.357E-17 0.000E+00   -.127E-04 0.413E-12 0.556E-12
   0.641E-01 0.701E-12 0.277E-11   -.952E-01 -.355E-14 -.462E-13   0.265E-01 0.187E-17 0.000E+00   -.441E-04 0.497E-12 -.118E-11
   -.726E+00 -.908E-13 -.112E-11   0.728E+00 -.639E-13 -.114E-12   -.206E-02 0.446E-17 0.000E+00   0.568E-05 0.110E-12 0.852E-12
   -.183E+00 -.147E-12 0.181E-10   0.181E+00 0.114E-12 -.284E-13   0.133E-02 -.705E-18 0.000E+00   0.105E-04 -.219E-12 -.154E-11
   -.183E+00 -.328E-11 0.208E-10   0.181E+00 0.103E-12 -.114E-12   0.133E-02 -.502E-17 0.000E+00   0.105E-04 0.310E-12 0.631E-12
   -.872E-01 -.407E-11 -.258E-10   0.890E-01 0.426E-13 -.284E-13   -.153E-02 -.148E-17 0.000E+00   -.876E-06 0.595E-12 -.137E-11
   -.423E-01 0.203E+01 -.203E+01   0.100E+00 -.208E+01 0.208E+01   -.292E-01 0.312E-01 -.312E-01   -.302E-04 0.810E-05 -.810E-05
   0.170E+00 0.741E-01 0.202E+00   -.175E+00 -.793E-01 -.199E+00   0.475E-02 0.451E-02 -.263E-02   -.294E-04 -.205E-04 -.697E-05
   0.170E+00 -.202E+00 -.741E-01   -.175E+00 0.199E+00 0.793E-01   0.475E-02 0.263E-02 -.451E-02   -.294E-04 0.697E-05 0.205E-04
   0.105E+00 -.335E-01 0.335E-01   -.886E-01 0.430E-01 -.430E-01   -.141E-01 -.947E-02 0.947E-02   0.458E-05 0.304E-05 -.304E-05
   -.619E+00 -.201E+00 0.201E+00   0.620E+00 0.200E+00 -.200E+00   -.119E-02 0.119E-02 -.119E-02   0.135E-04 -.118E-04 0.118E-04
   -.178E+00 -.424E-01 -.975E-01   0.178E+00 0.430E-01 0.961E-01   0.870E-03 -.707E-03 0.147E-02   0.109E-04 0.118E-04 -.230E-04
   -.178E+00 0.975E-01 0.424E-01   0.178E+00 -.961E-01 -.430E-01   0.870E-03 -.147E-02 0.707E-03   0.109E-04 0.230E-04 -.118E-04
   -.884E-01 0.298E-01 -.298E-01   0.888E-01 -.311E-01 0.311E-01   -.597E-03 0.944E-03 -.944E-03   0.183E-04 -.386E-05 0.386E-05
   0.406E+00 -.169E-01 0.169E-01   -.435E+00 -.137E-02 0.137E-02   0.251E-01 0.190E-01 -.190E-01   -.599E-05 -.346E-05 0.346E-05
   0.406E+00 0.198E-01 0.198E-01   -.435E+00 -.137E-02 -.137E-02   0.252E-01 -.191E-01 -.191E-01   -.363E-04 -.292E-04 -.292E-04
   0.406E+00 -.198E-01 -.198E-01   -.435E+00 0.137E-02 0.137E-02   0.252E-01 0.191E-01 0.191E-01   -.363E-04 0.292E-04 0.292E-04
   0.406E+00 0.169E-01 -.169E-01   -.435E+00 0.137E-02 -.137E-02   0.251E-01 -.190E-01 0.190E-01   -.599E-05 0.346E-05 -.346E-05
   -.243E+00 -.390E-03 0.390E-03   0.245E+00 0.410E-03 -.410E-03   -.123E-02 0.467E-04 -.467E-04   0.208E-04 -.667E-05 0.667E-05
   -.243E+00 -.409E-03 -.409E-03   0.245E+00 0.410E-03 0.410E-03   -.118E-02 -.560E-04 -.560E-04   0.230E-05 -.190E-05 -.190E-05
   -.243E+00 0.409E-03 0.409E-03   0.245E+00 -.410E-03 -.410E-03   -.118E-02 0.560E-04 0.560E-04   0.230E-05 0.190E-05 0.190E-05
   -.243E+00 0.390E-03 -.390E-03   0.245E+00 -.410E-03 0.410E-03   -.123E-02 -.467E-04 0.467E-04   0.208E-04 0.667E-05 -.667E-05
   0.170E+00 0.202E+00 0.741E-01   -.175E+00 -.199E+00 -.793E-01   0.475E-02 -.263E-02 0.451E-02   -.294E-04 -.697E-05 -.205E-04
   0.105E+00 0.335E-01 -.335E-01   -.886E-01 -.430E-01 0.430E-01   -.141E-01 0.947E-02 -.947E-02   0.458E-05 -.304E-05 0.304E-05
   -.423E-01 -.203E+01 0.203E+01   0.100E+00 0.208E+01 -.208E+01   -.292E-01 -.312E-01 0.312E-01   -.302E-04 -.810E-05 0.810E-05
   0.170E+00 -.741E-01 -.202E+00   -.175E+00 0.793E-01 0.199E+00   0.475E-02 -.451E-02 0.263E-02   -.294E-04 0.205E-04 0.697E-05
   -.178E+00 -.975E-01 -.424E-01   0.178E+00 0.961E-01 0.430E-01   0.870E-03 0.147E-02 -.707E-03   0.109E-04 -.230E-04 0.118E-04
   -.884E-01 -.298E-01 0.298E-01   0.888E-01 0.311E-01 -.311E-01   -.597E-03 -.944E-03 0.944E-03   0.183E-04 0.386E-05 -.386E-05
   -.619E+00 0.201E+00 -.201E+00   0.620E+00 -.200E+00 0.200E+00   -.119E-02 -.119E-02 0.119E-02   0.135E-04 0.118E-04 -.118E-04
   -.178E+00 0.424E-01 0.975E-01   0.178E+00 -.430E-01 -.961E-01   0.870E-03 0.707E-03 -.147E-02   0.109E-04 -.118E-04 0.230E-04
   -.350E+00 -.516E-04 -.665E+00   0.352E+00 -.711E-13 0.667E+00   -.413E-03 -.676E-03 -.140E-02   0.195E-05 0.250E-05 -.205E-05
   -.350E+00 0.516E-04 0.665E+00   0.352E+00 0.000E+00 -.667E+00   -.413E-03 0.676E-03 0.140E-02   0.195E-05 -.250E-05 0.205E-05
   -.106E-01 -.201E-02 -.596E-01   0.116E-01 -.355E-14 0.552E-01   -.665E-03 0.195E-02 0.349E-02   0.158E-05 0.815E-05 0.102E-04
   -.106E-01 0.201E-02 0.596E-01   0.116E-01 0.142E-13 -.552E-01   -.665E-03 -.195E-02 -.349E-02   0.158E-05 -.815E-05 -.102E-04
   -.348E+00 -.225E-03 0.669E+00   0.350E+00 -.163E-12 -.672E+00   -.369E-03 -.497E-03 0.134E-02   -.104E-05 -.117E-04 0.474E-05
   -.348E+00 0.225E-03 -.669E+00   0.350E+00 0.782E-13 0.672E+00   -.369E-03 0.497E-03 -.134E-02   -.104E-05 0.117E-04 -.474E-05
   -.968E-02 -.198E-02 0.596E-01   0.108E-01 -.409E-13 -.553E-01   -.698E-03 0.193E-02 -.349E-02   0.199E-04 -.126E-04 0.216E-04
   -.968E-02 0.198E-02 -.596E-01   0.108E-01 -.178E-13 0.553E-01   -.698E-03 -.193E-02 0.349E-02   0.199E-04 0.126E-04 -.216E-04
   -.197E-01 -.204E+01 -.204E+01   0.777E-01 0.209E+01 0.209E+01   -.291E-01 -.314E-01 -.314E-01   0.149E-04 -.173E-05 -.173E-05
   0.172E+00 -.738E-01 0.201E+00   -.177E+00 0.790E-01 -.198E+00   0.473E-02 -.449E-02 -.262E-02   -.178E-04 -.248E-05 0.115E-04
   0.172E+00 0.201E+00 -.738E-01   -.177E+00 -.198E+00 0.790E-01   0.473E-02 -.262E-02 -.449E-02   -.178E-04 0.115E-04 -.248E-05
   0.106E+00 0.333E-01 0.333E-01   -.893E-01 -.427E-01 -.427E-01   -.141E-01 0.946E-02 0.946E-02   -.705E-05 -.158E-04 -.158E-04
   -.617E+00 0.199E+00 0.199E+00   0.618E+00 -.197E+00 -.197E+00   -.118E-02 -.119E-02 -.119E-02   0.117E-04 -.184E-06 -.184E-06
   -.179E+00 0.419E-01 -.967E-01   0.178E+00 -.427E-01 0.953E-01   0.843E-03 0.835E-03 0.142E-02   0.245E-04 -.786E-05 0.210E-04
   -.179E+00 -.967E-01 0.419E-01   0.178E+00 0.953E-01 -.427E-01   0.843E-03 0.142E-02 0.835E-03   0.245E-04 0.210E-04 -.786E-05
   -.889E-01 -.296E-01 -.296E-01   0.892E-01 0.309E-01 0.309E-01   -.583E-03 -.955E-03 -.955E-03   -.267E-05 0.141E-04 0.141E-04
   -.350E+00 0.665E+00 0.516E-04   0.352E+00 -.667E+00 0.284E-13   -.413E-03 0.140E-02 0.676E-03   0.195E-05 0.205E-05 -.250E-05
   -.106E-01 0.596E-01 0.201E-02   0.116E-01 -.552E-01 0.121E-12   -.665E-03 -.349E-02 -.195E-02   0.158E-05 -.102E-04 -.815E-05
   -.350E+00 -.665E+00 -.516E-04   0.352E+00 0.667E+00 -.284E-13   -.413E-03 -.140E-02 -.676E-03   0.195E-05 -.205E-05 0.250E-05
   -.106E-01 -.596E-01 -.201E-02   0.116E-01 0.552E-01 0.000E+00   -.665E-03 0.349E-02 0.195E-02   0.158E-05 0.102E-04 0.815E-05
   -.348E+00 -.669E+00 0.225E-03   0.350E+00 0.672E+00 -.639E-13   -.369E-03 -.134E-02 0.497E-03   -.104E-05 -.474E-05 0.117E-04
   -.968E-02 -.596E-01 0.198E-02   0.108E-01 0.553E-01 -.213E-13   -.698E-03 0.349E-02 -.193E-02   0.199E-04 -.216E-04 0.126E-04
   -.348E+00 0.669E+00 -.225E-03   0.350E+00 -.672E+00 -.711E-14   -.369E-03 0.134E-02 -.497E-03   -.104E-05 0.474E-05 -.117E-04
   -.968E-02 0.596E-01 -.198E-02   0.108E-01 -.553E-01 0.213E-13   -.698E-03 -.349E-02 0.193E-02   0.199E-04 0.216E-04 -.126E-04
   0.172E+00 -.201E+00 0.738E-01   -.177E+00 0.198E+00 -.790E-01   0.473E-02 0.262E-02 0.449E-02   -.178E-04 -.115E-04 0.248E-05
   0.106E+00 -.333E-01 -.333E-01   -.893E-01 0.427E-01 0.427E-01   -.141E-01 -.946E-02 -.946E-02   -.705E-05 0.158E-04 0.158E-04
   -.197E-01 0.204E+01 0.204E+01   0.777E-01 -.209E+01 -.209E+01   -.291E-01 0.314E-01 0.314E-01   0.149E-04 0.173E-05 0.173E-05
   0.172E+00 0.738E-01 -.201E+00   -.177E+00 -.790E-01 0.198E+00   0.473E-02 0.449E-02 0.262E-02   -.178E-04 0.248E-05 -.115E-04
   -.179E+00 0.967E-01 -.419E-01   0.178E+00 -.953E-01 0.427E-01   0.843E-03 -.142E-02 -.835E-03   0.245E-04 -.210E-04 0.786E-05
   -.889E-01 0.296E-01 0.296E-01   0.892E-01 -.309E-01 -.309E-01   -.583E-03 0.955E-03 0.955E-03   -.267E-05 -.141E-04 -.141E-04
   -.617E+00 -.199E+00 -.199E+00   0.618E+00 0.197E+00 0.197E+00   -.118E-02 0.119E-02 0.119E-02   0.117E-04 0.184E-06 0.184E-06
   -.179E+00 -.419E-01 0.967E-01   0.178E+00 0.427E-01 -.953E-01   0.843E-03 -.835E-03 -.142E-02   0.245E-04 0.786E-05 -.210E-04
 -----------------------------------------------------------------------------------------------
   -.256E-03 -.832E-08 0.112E-04   -.118E-11 -.461E-14 -.775E-12   -.150E-02 -.396E-16 0.000E+00   -.544E-05 0.611E-11 0.697E-12
 
 
 POSITION                                       TOTAL-FORCE (eV/Angst)
 -----------------------------------------------------------------------------------
      2.89296      0.00000      2.88143        -0.117583     -0.000000     -0.000000
      2.88143      0.00000      8.64429         0.000496     -0.000000     -0.000000
      2.88143      5.76286      2.88143         0.000496     -0.000000     -0.000000
      2.88143      5.76286      8.64429        -0.004564     -0.000000     -0.000000
      8.64429      0.00000      2.88143         0.000329     -0.000000     -0.000000
      8.64429      0.00000      8.64429        -0.000157     -0.000000     -0.000000
      8.64429      5.76286      2.88143        -0.000157     -0.000000     -0.000000
      8.64429      5.76286      8.64429         0.000267     -0.000000     -0.000000
      1.44072      1.44072      1.44072         0.028677     -0.019475      0.019475
      1.44072      1.44072      7.20358        -0.000481     -0.000714      0.000328
      1.44072      7.20358      1.44072        -0.000481     -0.000328      0.000714
      1.44072      7.20358      7.20358         0.002435     -0.000040      0.000040
      7.20358      1.44072      1.44072        -0.000184     -0.000330      0.000330
      7.20358      1.44072      7.20358         0.000084     -0.000044      0.000034
      7.20358      7.20358      1.44072         0.000084     -0.000034      0.000044
      7.20358      7.20358      7.20358        -0.000216     -0.000344      0.000344
      2.88143      2.88143      0.00000        -0.004062      0.000726     -0.000726
      2.88143      2.88143      5.76286        -0.004078     -0.000731     -0.000731
      2.88143      8.64429      0.00000        -0.004078      0.000731      0.000731
      2.88143      8.64429      5.76286        -0.004062     -0.000726      0.000726
      8.64429      2.88143      0.00000         0.000107      0.000060     -0.000060
      8.64429      2.88143      5.76286         0.000103     -0.000057     -0.000057
      8.64429      8.64429      0.00000         0.000103      0.000057      0.000057
      8.64429      8.64429      5.76286         0.000107     -0.000060      0.000060
      1.44072      4.32215      4.32215        -0.000481      0.000328     -0.000714
      1.44072      4.32215     10.08501         0.002435      0.000040     -0.000040
      1.44072     10.08501      4.32215         0.028677      0.019475     -0.019475
      1.44072     10.08501     10.08501        -0.000481      0.000714     -0.000328
      7.20358      4.32215      4.32215         0.000084      0.000034     -0.000044
      7.20358      4.32215     10.08501        -0.000216      0.000344     -0.000344
      7.20358     10.08501      4.32215        -0.000184      0.000330     -0.000330
      7.20358     10.08501     10.08501         0.000084      0.000044     -0.000034
      0.00000      0.00000      0.00000         0.001629     -0.000725      0.001482
      0.00000      0.00000      5.76286         0.001629      0.000725     -0.001482
      0.00000      5.76286      0.00000         0.000420     -0.000058     -0.000885
      0.00000      5.76286      5.76286         0.000420      0.000058      0.000885
      5.76286      0.00000      0.00000         0.001655     -0.000734     -0.001503
      5.76286      0.00000      5.76286         0.001655      0.000734      0.001503
      5.76286      5.76286      0.00000         0.000420     -0.000057      0.000880
      5.76286      5.76286      5.76286         0.000420      0.000057     -0.000880
      4.32215      1.44072      4.32215         0.028959      0.020014      0.020014
      4.32215      1.44072     10.08501        -0.000484      0.000708      0.000330
      4.32215      7.20358      4.32215        -0.000484      0.000330      0.000708
      4.32215      7.20358     10.08501         0.002448      0.000040      0.000040
     10.08501      1.44072      4.32215        -0.000180      0.000329      0.000329
     10.08501      1.44072     10.08501         0.000078      0.000035      0.000028
     10.08501      7.20358      4.32215         0.000078      0.000028      0.000035
     10.08501      7.20358     10.08501        -0.000212      0.000347      0.000347
      0.00000      2.88143      2.88143         0.001629     -0.001482      0.000725
      0.00000      2.88143      8.64429         0.000420      0.000885      0.000058
      0.00000      8.64429      2.88143         0.001629      0.001482     -0.000725
      0.00000      8.64429      8.64429         0.000420     -0.000885     -0.000058
      5.76286      2.88143      2.88143         0.001655      0.001503      0.000734
      5.76286      2.88143      8.64429         0.000420     -0.000880      0.000057
      5.76286      8.64429      2.88143         0.001655     -0.001503     -0.000734
      5.76286      8.64429      8.64429         0.000420      0.000880     -0.000057
      4.32215      4.32215      1.44072        -0.000484     -0.000330     -0.000708
      4.32215      4.32215      7.20358         0.002448     -0.000040     -0.000040
      4.32215     10.08501      1.44072         0.028959     -0.020014     -0.020014
      4.32215     10.08501      7.20358        -0.000484     -0.000708     -0.000330
     10.08501      4.32215      1.44072         0.000078     -0.000028     -0.000035
     10.08501      4.32215      7.20358        -0.000212     -0.000347     -0.000347
     10.08501     10.08501      1.44072        -0.000180     -0.000329     -0.000329
     10.08501     10.08501      7.20358         0.000078     -0.000035     -0.000028
 -----------------------------------------------------------------------------------
    total drift:                               -0.001758     -0.000000      0.000011


--------------------------------------------------------------------------------------------------------



  FREE ENERGIE OF THE ION-ELECTRON SYSTEM (eV)
  ---------------------------------------------------
  free  energy   TOTEN  =      -289.18629538 eV

  energy  without entropy=     -289.18627724  energy(sigma->0) =     -289.18628631
 


--------------------------------------------------------------------------------------------------------


    POTLOK:  cpu time    0.1614: real time    0.3036


--------------------------------------------------------------------------------------------------------


     LOOP+:  cpu time 3875.8710: real time 3885.7154
    4ORBIT:  cpu time    0.0000: real time    0.0000

 total amount of memory used by VASP MPI-rank0   353489. kBytes
=======================================================================

   base      :      30000. kBytes
   nonl-proj :      26870. kBytes
   fftplans  :      14849. kBytes
   grid      :      20975. kBytes
   one-center:        248. kBytes
   wavefun   :     260547. kBytes
 
  
  
 General timing and accounting informations for this job:
 ========================================================
  
                  Total CPU time used (sec):     3902.337
                            User time (sec):     3873.660
                          System time (sec):       28.677
                         Elapsed time (sec):     3912.542
  
                   Maximum memory used (kb):      432432.
                   Average memory used (kb):           0.
  
                          Minor page faults:       419341
                          Major page faults:            1
                 Voluntary context switches:         1871
